1 : se-ohessain3.inp
2 : 00
3 : 1
----- GAMESS execution script 'rungms' -----
This job is running on host nayanika-HP-Pavilion-Gaming-Laptop-15-ec0xxx
under operating system Linux at Tue 20 Dec 00:56:26 CET 2022
Available scratch disk space (Kbyte units) at beginning of the job is
Filesystem     1K-blocks      Used Available Use% Mounted on
/dev/nvme0n1p2 243520884 134908672  96169180  59% /
GAMESS temporary binary files will be written to /home/nayanika/gamess/restart
GAMESS supplementary output files will be written to /home/nayanika/gamess/restart
Copying input file /home/nayanika/OneDrive/Thesis/QM/STEP1/Transition_state/Saddle_Point/se-ohessain3.inp to your run's scratch directory...

 Distributed Data Interface kickoff program.
 Initiating 1 compute processes on 1 nodes to run the following command:
 /home/nayanika/gamess/gamess.00.x se-ohessain3 

          *******************************************************
          *                                                     *
          *          GAMESS VERSION = 31 JUL 2022 (R1)          *
          *                                                     *
          *              doi.org/10.1063/5.0005188              *
          *                                                     *
          **************** 64 BIT LINUX VERSION *****************

  GAMESS HAS BEEN MADE POSSIBLE WITH IMPORTANT CONTRIBUTIONS FROM
  THE FOLLOWING INDIVIDUALS (IN ALPHABETICAL ORDER):

     IVANA ADAMOVIC, CHRISTINE AIKENS, TOMOKO AKAMA,
     MELISA ALKAN, YURI ALEXEEV, YURIKO AOKI, POOJA ARORA,
     TOSHIO ASADA, ANDREY ASADCHEV, KIM K. BALDRIDGE,
     PRADIPTA BANDYOPADHYAY, TAYLOR A. BARNES, MARIA BARYSZ,
     ROB BELL, JONATHAN BENTZ, COLLEEN BERTONI,
     JERRY A. BOATZ, BRETT BODE, KURT BRORSEN, KURT R. BRORSEN,
     LAIMUTIS BYTAUTAS, CALEB CARLIN, LAURA CARRINGTON,
     GALINA CHABAN, BENOIT CHAMPAGNE, WEI CHEN, MAHITO CHIBA,
     DAN CHIPMAN, CHEOL HO CHOI, TANNER CULPITT,
     DIPAYAN DATTA, PAUL DAY, ALBERT DEFUSCO,
     NUWAN DESILVA, J. EMILIANO DEUSTUA,
     TIM DUDLEY, MICHEL DUPUIS, STEVEN T. ELBERT,
     DMITRI FEDOROV, KATHERINE FERRERAS, MICHAEL FILATOV,
     ALEX FINDLATER,GRAHAM FLETCHER, MARK FREITAG,
     CHRISTIAN FRIEDL, DAVID GARMER, 
     IGOR S. GERASIMOV, KURT GLAESEMANN,
     MARK S. GORDON, JEFFREY GOUR, FENG LONG GU,
     EMILIE B. GUIDEZ, ANASTASIA GUNINA, SHARON HAMMES-SCHIFFER,
     MASATAKE HARUTA, KIMIHIKO HIRAO, YASUHIRO IKABATA,
     TZVETELIN IORDANOV, STEPHAN IRLE, KAZUYA ISHIMURA,
     JOE IVANIC, FRANK JENSEN, JAN H. JENSEN, VISVALDAS KAIRYS,
     MUNEAKI KAMIYA, MICHIO KATOUDA, NAOAKI KAWAKAMI, DAN KEMP,
     BERNARD KIRTMAN, KAZUO KITAURA, MARIUSZ KLOBUKOWSKI,
     MASATO KOBAYASHI, KONSTANTIN KOMAROV, PRAKASHAN KORAMBATH,
     JACEK KORCHOWIEC, SHIRO KOSEKI, KAROL KOWALSKI,
     JIMMY KROMANN, STANISLAW KUCHARSKI, HENRY KURTZ,
     SAROM SOK LEANG, SEUNGHOON LEE, HUI LI, SHUHUA LI, WEI LI,
     JESSE LUTZ, ALEKSANDR O. LYKHIN, MARCIN MAKOWSKI,
     JOANI MATO, NIKITA MATSUNAGA, BENEDETTA MENNUCCI,
     GRANT MERRILL, NORIYUKI MINEZAWA, VLADIMIR MIRONOV,
     EISAKU MIYOSHI, JOHN A. MONTGOMERY JR., HIROTOSHI MORI,
     JONATHAN MULLIN, MONIKA MUSIAL, SHIGERU NAGASE,
     TAKESHI NAGATA, HIROMI NAKAI, TAKAHITO NAKAJIMA,
     YUYA NAKAJIMA, HARUYUKI NAKANO, HIROYA NAKATA, SEAN NEDD,
     HEATHER NETZLOFF, KIET A. NGUYEN, YOSHIO NISHIMOTO,
     BOSILJKA NJEGIC, RYAN OLSON, MIKE PAK, ROBERTO PEVERATI,
     BUU PHAM, PIOTR PIECUCH, ANNA POMOGAEVA, DAVID POOLE,
     SPENCER PRUITT, OLIVIER QUINET, LUKE ROSKOP,
     KLAUS RUEDENBERG, ANDREW SAND, TOSAPORN SATTASATHUCHANA,
     NOZOMI SAWADA, MICHAEL W. SCHMIDT, PATRICK E. SCHNEIDER,
     JUNJI SEINO, PRACHI SHARMA, JUN SHEN, JIM SHOEMAKER,
     YINAN SHU, DEJUN SI, JONATHAN SKONE, LYUDMILA SLIPCHENKO,
     TONY SMITH, JIE SONG, MARK SPACKMAN, CASPER STEINMANN,
     WALT STEVENS, PEIFENG SU, SHUJUN SU, CHET SWALINA,
     CHINAMI TAKASHIMA, TETSUYA TAKETSUGU, ZHEN TAO,
     NANDUN THELLAMUREGE, SEIKEN TOKURA, JACOPO TOMASI,
     TSUGUKI TOUMA, TAKAO TSUNEDA, HIROAKI UMEDA,
     JORGE LUIS GALVEZ VALLEJO, YALI WANG, SIMON WEBB,
     AARON WEST, THERESA L. WINDUS, MARTA WLOCH,
     PENG XU, KIYOSHI YAGI, SUSUMU YANAGISAWA, YANG YANG,
     SOOHAENG YOO, TAKESHI YOSHIKAWA, FEDERICO ZAHARIEV,
     TOBY ZENG

  WHO ARE SUPPORTED BY THEIR INSTITUTION/UNIVERSITY/COMPANY/GROUP
  (IN ALPHABETICAL ORDER):

     EP ANALYTICS,
     FACULTES UNIVERSITAIRES NOTRE-DAME DE LA PAIX,
     INSTITUTE FOR MOLECULAR SCIENCE, IOWA STATE UNIVERSITY,
     JACKSON STATE UNIVERSITY, JOHANNES KEPLER UNIVERSITY LINZ,
     KYUNGPOOK NATIONAL UNIVERSITY
     KYUSHU UNIVERSITY, MICHIGAN STATE UNIVERSITY,
     MIE UNIVERSITY, THE MOLECULAR SCIENCES SOFTWARE INSTITUTE,
     MOSCOW STATE UNIVERSITY,
     N. COPERNICUS UNIVERSITY, NAGOYA UNIVERSITY,
     NANJING UNIVERSITY, NAT. INST. OF ADVANCED INDUSTRIAL
     SCIENCE AND TECHNOLOGY, NATIONAL INST. OF STANDARDS AND
     TECHNOLOGY, NESMEYANOV INSTITUTE OF ORGANOELEMENT COMPOUNDS
     OF RUSSIAN ACADEMY OF SCIENCES, OSAKA PREFECTURE UNIVERSITY,
     PENNSYLVANIA STATE UNIVERSITY, TOKYO INSTITUTE OF TECHNOLOGY,
     UNIVERSITY OF AARHUS, UNIVERSITY OF ALBERTA,
     UNIVERSITY OF CALIFORNIA AT SANTA BARBARA,
     UNIVERSITY OF COPENHAGEN, UNIVERSITY OF IOWA,
     UNIVERSITY OF MEMPHIS, UNIVERSITY OF MINNESOTA,
     UNIVERSITY OF NEBRASKA, UNIVERSITY OF NEW ENGLAND,
     UNIVERSITY OF NOTRE DAME, UNIVERSITY OF PISA,
     UNIVERSITY OF SILESIA, UNIVERSITY OF TOKYO,
     UNIVERSITY OF ZURICH, WASEDA UNIVERSITY,
     YALE UNIVERSITY

  GAMESS SOFTWARE MANAGEMENT TEAM FOR THIS RELEASE:
     MARK S. GORDON (TEAM LEAD),
     BRETT BODE (SENIOR ADVISOR),
     GIUSEPPE BARCA,
     COLLEEN BERTONI,
     KRISTOPHER KEIPERT (ADVISOR),
     SAROM S. LEANG (DEVELOPMENT LEAD),
     BUU PHAM,
     JACKSON HAYES (WEBSITE ADMINISTRATOR),
     PENG XU

 EXECUTION OF GAMESS BEGUN 00:56:34 20-DEC-2022    

            ECHO OF THE FIRST FEW INPUT CARDS -
 INPUT CARD> $CONTRL                                                                        
 INPUT CARD>  ICHARG=0                                                                      
 INPUT CARD>  SCFTYP=RHF                                                                    
 INPUT CARD>  RUNTYP=HESSIAN                                                                
 INPUT CARD>  UNITS=ANGS                                                                    
 INPUT CARD> $END                                                                           
 INPUT CARD> $SYSTEM                                                                        
 INPUT CARD>  TIMLIM=1440                                                                   
 INPUT CARD> $END                                                                           
 INPUT CARD> $BASIS                                                                         
 INPUT CARD>  GBASIS=N31                                                                    
 INPUT CARD>  NGAUSS=6                                                                      
 INPUT CARD>  NDFUNC=1                                                                      
 INPUT CARD> $END                                                                           
 INPUT CARD> $GUESS                                                                         
 INPUT CARD>  GUESS=HUCKEL                                                                  
 INPUT CARD> $END                                                                           
 INPUT CARD> $STATPT                                                                        
 INPUT CARD>  NSTEP=200                                                                     
 INPUT CARD> $END                                                                           
 INPUT CARD> $DATA                                                                          
 INPUT CARD>Saddle point                                                                    
 INPUT CARD>C1                                                                              
 INPUT CARD> C           6.0   0.4902528828   2.1945414356   0.6736462414                   
 INPUT CARD> H           1.0  -0.2313625003   2.9920041626   0.7673281001                   
 INPUT CARD> H           1.0   0.6830215324   1.9851282767  -0.3678947216                   
 INPUT CARD> H           1.0   1.4083615312   2.4720804612   1.1662773592                   
 INPUT CARD> SE         34.0  -0.1682443479   0.5907266940   1.5812754054                   
 INPUT CARD> H           1.0  -1.3909242510   0.5024505352   0.7738165448                   
 INPUT CARD> O           8.0   2.0966712567   0.5446871637   2.6386500548                   
 INPUT CARD> O           8.0   3.2924520561   1.1096016283   3.0921494595                   
 INPUT CARD> H           1.0   2.3754199059  -0.2937884022   2.2888615415                   
 INPUT CARD> H           1.0   3.1591758470   1.1309956040   4.0322327375                   
 INPUT CARD> $END                                                                           
    1000000 WORDS OF MEMORY AVAILABLE

     BASIS OPTIONS
     -------------
     GBASIS=N31          IGAUSS=       6      POLAR=POPN31  
     NDFUNC=       1     NFFUNC=       0     DIFFSP=       F
     NPFUNC=       0      DIFFS=       F     BASNAM=        


     RUN TITLE
     ---------
 Saddle point                                                                    

 THE POINT GROUP OF THE MOLECULE IS C1      
 THE ORDER OF THE PRINCIPAL AXIS IS     0

 ATOM      ATOMIC                      COORDINATES (BOHR)
           CHARGE         X                   Y                   Z
 C           6.0     0.9264436132        4.1470819820        1.2730068089
 H           1.0    -0.4372117294        5.6540680214        1.4500398519
 H           1.0     1.2907235399        3.7513484934       -0.6952202162
 H           1.0     2.6614173856        4.6715546913        2.2039446346
 SE         34.0    -0.3179357165        1.1163115853        2.9881772273
 H           1.0    -2.6284657041        0.9494938339        1.4623012344
 O           8.0     3.9621341615        1.0293094884        4.9863255811
 O           8.0     6.2218322137        2.0968430330        5.8433151915
 H           1.0     4.4888927279       -0.5551795785        4.3253211373
 H           1.0     5.9699766979        2.1372717849        7.6198149926

          INTERNUCLEAR DISTANCES (ANGS.)
          ------------------------------

                1 C          2 H          3 H          4 H          5 SE    

   1 C       0.0000000    1.0795610 *  1.0797320 *  1.0782564 *  1.9569443 *
   2 H       1.0795610 *  0.0000000    1.7716174 *  1.7658358 *  2.5362625 *
   3 H       1.0797320 *  1.7716174 *  0.0000000    1.7654814 *  2.5432801 *
   4 H       1.0782564 *  1.7658358 *  1.7654814 *  0.0000000    2.4894581 *
   5 SE      1.9569443 *  2.5362625 *  2.5432801 *  2.4894581 *  0.0000000  
   6 H       2.5321993 *  2.7463617 *  2.7934010 *  3.4452095    1.4678994 *
   7 O       3.0271834    3.8614696    3.6211307    2.5212093 *  2.5000007 *
   8 O       3.8572753    4.6222833    4.4212646    3.0191272    3.8116127  
   9 H       3.5149055    4.4617050    3.8879336    3.1377425    2.7844700 *
  10 H       4.4197718    5.0614924    5.1207426    3.6162909    4.1678301  

                6 H          7 O          8 O          9 H         10 H     

   1 C       2.5321993 *  3.0271834    3.8572753    3.5149055    4.4197718  
   2 H       2.7463617 *  3.8614696    4.6222833    4.4617050    5.0614924  
   3 H       2.7934010 *  3.6211307    4.4212646    3.8879336    5.1207426  
   4 H       3.4452095    2.5212093 *  3.0191272    3.1377425    3.6162909  
   5 SE      1.4678994 *  2.5000007 *  3.8116127    2.7844700 *  4.1678301  
   6 H       0.0000000    3.9550866    5.2609233    4.1369924    5.6316743  
   7 O       3.9550866    0.0000000    1.3980993 *  0.9503126 *  1.8479032 *
   8 O       5.2609233    1.3980993 *  0.0000000    1.8589575 *  0.9497246 *
   9 H       4.1369924    0.9503126 *  1.8589575 *  0.0000000    2.3840356 *
  10 H       5.6316743    1.8479032 *  0.9497246 *  2.3840356 *  0.0000000  

  * ... LESS THAN  3.000


     ATOMIC BASIS SET
     ----------------
 THE CONTRACTED PRIMITIVE FUNCTIONS HAVE BEEN UNNORMALIZED
 THE CONTRACTED BASIS FUNCTIONS ARE NOW NORMALIZED TO UNITY

  SHELL TYPE  PRIMITIVE        EXPONENT          CONTRACTION COEFFICIENT(S)

 C         

      1   S       1          3047.5248800    0.001834737132
      1   S       2           457.3695180    0.014037322813
      1   S       3           103.9486850    0.068842622264
      1   S       4            29.2101553    0.232184443216
      1   S       5             9.2866630    0.467941348435
      1   S       6             3.1639270    0.362311985337

      2   L       7             7.8682723   -0.119332419775    0.068999066591
      2   L       8             1.8812885   -0.160854151696    0.316423960957
      2   L       9             0.5442493    1.143456437840    0.744308290898

      3   L      10             0.1687145    1.000000000000    1.000000000000

      4   D      11             0.8000000    1.000000000000

 H         

      5   S      12            18.7311370    0.033494604338
      5   S      13             2.8253944    0.234726953484
      5   S      14             0.6401217    0.813757326146

      6   S      15             0.1612778    1.000000000000

 H         

      7   S      16            18.7311370    0.033494604338
      7   S      17             2.8253944    0.234726953484
      7   S      18             0.6401217    0.813757326146

      8   S      19             0.1612778    1.000000000000

 H         

      9   S      20            18.7311370    0.033494604338
      9   S      21             2.8253944    0.234726953484
      9   S      22             0.6401217    0.813757326146

     10   S      23             0.1612778    1.000000000000

 SE        

     11   S      24        107027.3000000    0.001722645978
     11   S      25         16070.7600000    0.013203239832
     11   S      26          3661.2260000    0.065204939172
     11   S      27          1032.6730000    0.227378697112
     11   S      28           331.3339000    0.477145093941
     11   S      29           113.5470000    0.357555295459

     12   L      30          2313.5400000    0.002261923852    0.003818409027
     12   L      31           551.6849000    0.030194928020    0.030151450217
     12   L      32           179.4401000    0.125882791747    0.132561400953
     12   L      33            68.1304400   -0.004373808713    0.344341902475
     12   L      34            28.0306200   -0.604327660378    0.463923703334
     12   L      35            11.6657200   -0.486119968128    0.206819801486

     13   L      36           101.5754000   -0.005752618138   -0.006942389142
     13   L      37            35.6154500    0.056756081366   -0.030144410618
     13   L      38            15.1313500    0.265124306383    0.047764110979
     13   L      39             6.6469230   -0.167058204022    0.366382707512
     13   L      40             2.9728050   -0.718873717306    0.494008610129
     13   L      41             1.3167070   -0.322190707756    0.210010904306

     14   L      42             1.8469910    0.282315621857   -0.026539193755
     14   L      43             0.6471590   -0.212961616487    0.335729020994
     14   L      44             0.2579870   -0.954538473899    0.730181328169

     15   L      45             0.0941070    1.000000000000    1.000000000000

     16   D      46            56.1854400    0.079049626062
     16   D      47            15.5480800    0.374644881334
     16   D      48             4.9893940    0.707164464767

     17   D      49             1.5238440    1.000000000000

     18   D      50             0.3810000    1.000000000000

 H         

     19   S      51            18.7311370    0.033494604338
     19   S      52             2.8253944    0.234726953484
     19   S      53             0.6401217    0.813757326146

     20   S      54             0.1612778    1.000000000000

 O         

     21   S      55          5484.6716600    0.001831074430
     21   S      56           825.2349460    0.013950172200
     21   S      57           188.0469580    0.068445078098
     21   S      58            52.9645000    0.232714335992
     21   S      59            16.8975704    0.470192897984
     21   S      60             5.7996353    0.358520852987

     22   L      61            15.5396162   -0.110777549525    0.070874268231
     22   L      62             3.5999336   -0.148026262701    0.339752839147
     22   L      63             1.0137618    1.130767015354    0.727158577316

     23   L      64             0.2700058    1.000000000000    1.000000000000

     24   D      65             0.8000000    1.000000000000

 O         

     25   S      66          5484.6716600    0.001831074430
     25   S      67           825.2349460    0.013950172200
     25   S      68           188.0469580    0.068445078098
     25   S      69            52.9645000    0.232714335992
     25   S      70            16.8975704    0.470192897984
     25   S      71             5.7996353    0.358520852987

     26   L      72            15.5396162   -0.110777549525    0.070874268231
     26   L      73             3.5999336   -0.148026262701    0.339752839147
     26   L      74             1.0137618    1.130767015354    0.727158577316

     27   L      75             0.2700058    1.000000000000    1.000000000000

     28   D      76             0.8000000    1.000000000000

 H         

     29   S      77            18.7311370    0.033494604338
     29   S      78             2.8253944    0.234726953484
     29   S      79             0.6401217    0.813757326146

     30   S      80             0.1612778    1.000000000000

 H         

     31   S      81            18.7311370    0.033494604338
     31   S      82             2.8253944    0.234726953484
     31   S      83             0.6401217    0.813757326146

     32   S      84             0.1612778    1.000000000000

 TOTAL NUMBER OF BASIS SET SHELLS             =   32
 NUMBER OF CARTESIAN GAUSSIAN BASIS FUNCTIONS =   92
 NUMBER OF ELECTRONS                          =   62
 CHARGE OF MOLECULE                           =    0
 SPIN MULTIPLICITY                            =    1
 NUMBER OF OCCUPIED ORBITALS (ALPHA)          =   31
 NUMBER OF OCCUPIED ORBITALS (BETA )          =   31
 TOTAL NUMBER OF ATOMS                        =   10
 THE NUCLEAR REPULSION ENERGY IS      271.0641911807

     $CONTRL OPTIONS
     ---------------
 SCFTYP=RHF          RUNTYP=HESSIAN      EXETYP=RUN     
 MPLEVL=       0     CITYP =NONE         CCTYP =NONE         VBTYP =NONE    
 DFTTYP=NONE         TDDFT =NONE    
 MULT  =       1     ICHARG=       0     NZVAR =       0     COORD =UNIQUE  
 PP    =NONE         RELWFN=NONE         LOCAL =NONE         NUMGRD=       F
 ISPHER=      -1     NOSYM =       0     MAXIT =      30     UNITS =ANGS    
 PLTORB=       F     MOLPLT=       F     AIMPAC=       F     FRIEND=        
 NPRINT=       7     IREST =       0     GEOM  =INPUT   
 NORMF =       0     NORMP =       0     ITOL  =      20     ICUT  =       9
 INTTYP=BEST         GRDTYP=BEST         QMTTOL= 1.0E-06

     $SYSTEM OPTIONS
     ---------------
  REPLICATED MEMORY=     1000000 WORDS (ON EVERY NODE).
 DISTRIBUTED MEMDDI=           0 MILLION WORDS IN AGGREGATE,
 MEMDDI DISTRIBUTED OVER   1 PROCESSORS IS           0 WORDS/PROCESSOR.
 TOTAL MEMORY REQUESTED ON EACH PROCESSOR=     1000000 WORDS.
 TIMLIM=        1440.00 MINUTES, OR       1.0 DAYS.
 PARALL= F  BALTYP=  DLB     KDIAG=    0  COREFL= F
 MXSEQ2=     300 MXSEQ3=     150  mem10=         0  mem22=         0

          ----------------
          PROPERTIES INPUT
          ----------------

     MOMENTS            FIELD           POTENTIAL          DENSITY
 IEMOM =       1   IEFLD =       0   IEPOT =       0   IEDEN =       0
 WHERE =COMASS     WHERE =NUCLEI     WHERE =NUCLEI     WHERE =NUCLEI  
 OUTPUT=BOTH       OUTPUT=BOTH       OUTPUT=BOTH       OUTPUT=BOTH    
 IEMINT=       0   IEFINT=       0                     IEDINT=       0
                                                       MORB  =       0
          EXTRAPOLATION IN EFFECT
          SOSCF IN EFFECT
 ORBITAL PRINTING OPTION: NPREO=     1    92     2     1

     -------------------------------
     INTEGRAL TRANSFORMATION OPTIONS
     -------------------------------
     NWORD  =            0
     CUTOFF = 1.0E-09     MPTRAN =       0
     DIRTRF =       F     AOINTS =DUP     

          ----------------------
          INTEGRAL INPUT OPTIONS
          ----------------------
 NOPK  =       1 NORDER=       0 SCHWRZ=       T

     ------------------------------------------
     THE POINT GROUP IS C1 , NAXIS= 0, ORDER= 1
     ------------------------------------------

     DIMENSIONS OF THE SYMMETRY SUBSPACES ARE
 A   =   92

 ..... DONE SETTING UP THE RUN .....
 STEP CPU TIME =     0.02 TOTAL CPU TIME =          0.0 (      0.0 MIN)
 TOTAL WALL CLOCK TIME=          0.0 SECONDS, CPU UTILIZATION IS    97.74%

     ---------------------------------
     HESSIAN MATRIX CONTROL PARAMETERS
     ---------------------------------
     METHOD=ANALYTIC   NVIB  =       2   VIBSIZ= 0.01000
     RDHESS=       F   PURIFY=       F   PRTIFC=       F
     VIBANL=       T   DECOMP=       F   PROJCT=       F
     SCLFAC= 1.00000   PRTSCN=       F   NPRT  =       0
     PULCOR=       F   NPUN  =       0   REDOVB=       T
     HSSTYP=GENERAL 
     THERMOCHEMISTRY WILL BE PRINTED FOR    1 TEMPERATURES:
      298.15000
 Old integral subroutine is used

     ------------------------------
     CPHF RESPONSE SOLUTION OPTIONS
     ------------------------------
     POLAR  =       F     NWORD  =       0
     CPHF   =AO      

          ********************
          1 ELECTRON INTEGRALS
          ********************
 ...... END OF ONE-ELECTRON INTEGRALS ......
 STEP CPU TIME =     0.00 TOTAL CPU TIME =          0.0 (      0.0 MIN)
 TOTAL WALL CLOCK TIME=          0.0 SECONDS, CPU UTILIZATION IS    97.86%

          -------------
          GUESS OPTIONS
          -------------
          GUESS =HUCKEL            NORB  =       0          NORDER=       0
          MIX   =       F          PRTMO =       F          PUNMO =       F
          TOLZ  = 1.0E-08          TOLE  = 1.0E-05
          SYMDEN=       F          PURIFY=       F

 INITIAL GUESS ORBITALS GENERATED BY HUCKEL   ROUTINE.
 HUCKEL GUESS REQUIRES     75826 WORDS.

 SYMMETRIES FOR INITIAL GUESS ORBITALS FOLLOW.   BOTH SET(S).
    31 ORBITALS ARE OCCUPIED (   17 CORE ORBITALS).
    18=A       19=A       20=A       21=A       22=A       23=A       24=A   
    25=A       26=A       27=A       28=A       29=A       30=A       31=A   
    32=A       33=A       34=A       35=A       36=A       37=A       38=A   
    39=A       40=A       41=A   
 ...... END OF INITIAL ORBITAL SELECTION ......
 STEP CPU TIME =     0.01 TOTAL CPU TIME =          0.0 (      0.0 MIN)
 TOTAL WALL CLOCK TIME=          0.0 SECONDS, CPU UTILIZATION IS    98.35%

                    ----------------------
                    AO INTEGRAL TECHNOLOGY
                    ----------------------
     S,P,L SHELL ROTATED AXIS INTEGRALS, REPROGRAMMED BY
        KAZUYA ISHIMURA (IMS) AND JOSE SIERRA (SYNSTAR).
     S,P,D,L SHELL ROTATED AXIS INTEGRALS PROGRAMMED BY
        KAZUYA ISHIMURA (INSTITUTE FOR MOLECULAR SCIENCE).
     S,P,D,F,G SHELL TO TOTAL QUARTET ANGULAR MOMENTUM SUM 5,
        ERIC PROGRAM BY GRAHAM FLETCHER (ELORET AND NASA ADVANCED
        SUPERCOMPUTING DIVISION, AMES RESEARCH CENTER).
     S,P,D,F,G,L SHELL GENERAL RYS QUADRATURE PROGRAMMED BY
        MICHEL DUPUIS (PACIFIC NORTHWEST NATIONAL LABORATORY).

          --------------------
          2 ELECTRON INTEGRALS
          --------------------

 THE -PK- OPTION IS OFF, THE INTEGRALS ARE NOT IN SUPERMATRIX FORM.
 STORING   15000 INTEGRALS/RECORD ON DISK, USING 12 BYTES/INTEGRAL.
 TWO ELECTRON INTEGRAL EVALUATION REQUIRES   90924 WORDS OF MEMORY.
 SCHWARZ INEQUALITY OVERHEAD:      4152 INTEGRALS, T=        0.00
 II,JST,KST,LST =  1  1  1  1 NREC =         1 INTLOC =    1
 II,JST,KST,LST =  2  1  1  1 NREC =         1 INTLOC =    2
 II,JST,KST,LST =  3  1  1  1 NREC =         1 INTLOC =   34
 II,JST,KST,LST =  4  1  1  1 NREC =         1 INTLOC =  214
 II,JST,KST,LST =  5  1  1  1 NREC =         1 INTLOC = 1189
 II,JST,KST,LST =  6  1  1  1 NREC =         1 INTLOC = 3245
 II,JST,KST,LST =  7  1  1  1 NREC =         1 INTLOC = 5710
 II,JST,KST,LST =  8  1  1  1 NREC =         1 INTLOC = 8635
 II,JST,KST,LST =  9  1  1  1 NREC =         1 INTLOC =12074
 II,JST,KST,LST = 10  1  1  1 NREC =         2 INTLOC = 1084
 II,JST,KST,LST = 11  1  1  1 NREC =         2 INTLOC = 5725
 II,JST,KST,LST = 12  1  1  1 NREC =         2 INTLOC =10252
 II,JST,KST,LST = 13  1  1  1 NREC =         4 INTLOC = 5911
 II,JST,KST,LST = 14  1  1  1 NREC =         7 INTLOC = 3851
 II,JST,KST,LST = 15  1  1  1 NREC =        11 INTLOC = 8342
 II,JST,KST,LST = 16  1  1  1 NREC =        17 INTLOC = 7209
 II,JST,KST,LST = 17  1  1  1 NREC =        29 INTLOC = 6148
 II,JST,KST,LST = 18  1  1  1 NREC =        47 INTLOC =  257
 II,JST,KST,LST = 19  1  1  1 NREC =        71 INTLOC =  846
 II,JST,KST,LST = 20  1  1  1 NREC =        77 INTLOC =  370
 II,JST,KST,LST = 21  1  1  1 NREC =        83 INTLOC = 6587
 II,JST,KST,LST = 22  1  1  1 NREC =        85 INTLOC =14594
 II,JST,KST,LST = 23  1  1  1 NREC =       106 INTLOC = 1622
 II,JST,KST,LST = 24  1  1  1 NREC =       140 INTLOC = 8897
 II,JST,KST,LST = 25  1  1  1 NREC =       194 INTLOC = 5184
 II,JST,KST,LST = 26  1  1  1 NREC =       198 INTLOC =10090
 II,JST,KST,LST = 27  1  1  1 NREC =       224 INTLOC = 6474
 II,JST,KST,LST = 28  1  1  1 NREC =       276 INTLOC = 6563
 II,JST,KST,LST = 29  1  1  1 NREC =       339 INTLOC = 1715
 II,JST,KST,LST = 30  1  1  1 NREC =       354 INTLOC = 7565
 II,JST,KST,LST = 31  1  1  1 NREC =       374 INTLOC =14898
 II,JST,KST,LST = 32  1  1  1 NREC =       386 INTLOC = 8999
 SCHWARZ INEQUALITY TEST SKIPPED       39426 INTEGRAL BLOCKS.
 TOTAL NUMBER OF NONZERO TWO-ELECTRON INTEGRALS =             6084149
        406 INTEGRAL RECORDS WERE STORED ON DISK FILE  8.
  ...... END OF TWO-ELECTRON INTEGRALS .....
 STEP CPU TIME =     0.39 TOTAL CPU TIME =          0.4 (      0.0 MIN)
 TOTAL WALL CLOCK TIME=          0.4 SECONDS, CPU UTILIZATION IS    99.78%

          --------------------------
                 RHF SCF CALCULATION
          --------------------------

     NUCLEAR ENERGY =       271.0641911807
     MAXIT =   30     NPUNCH=    2
     EXTRAP=T  DAMP=F  SHIFT=F  RSTRCT=F  DIIS=F  DEM=F  SOSCF=T
     DENSITY MATRIX CONV=  1.00E-05
     SOSCF WILL OPTIMIZE    1891 ORBITAL ROTATIONS, SOGTOL=   0.250
     MEMORY REQUIRED FOR RHF ITERS=     98100 WORDS.

 ITER EX DEM     TOTAL ENERGY        E CHANGE  DENSITY CHANGE     ORB. GRAD
   1  0  0    -2589.3175547535 -2589.3175547535   0.753018323   0.000000000
          ---------------START SECOND ORDER SCF---------------
   2  1  0    -2590.4391361789    -1.1215814254   0.081919719   0.048066795
   3  2  0    -2590.4760214370    -0.0368852581   0.032669628   0.017208765
   4  3  0    -2590.4808584397    -0.0048370027   0.009352907   0.007341468
   5  4  0    -2590.4811255139    -0.0002670742   0.002417515   0.001003557
   6  5  0    -2590.4811631751    -0.0000376612   0.001250174   0.000848760
   7  6  0    -2590.4811700088    -0.0000068337   0.000460361   0.000233601
   8  7  0    -2590.4811712241    -0.0000012153   0.000179223   0.000088238
   9  8  0    -2590.4811714359    -0.0000002118   0.000077925   0.000049549
  10  9  0    -2590.4811714646    -0.0000000288   0.000034259   0.000014983
  11 10  0    -2590.4811714667    -0.0000000021   0.000007221   0.000001797
  12 11  0    -2590.4811714668    -0.0000000001   0.000002588   0.000000451

          -----------------
          DENSITY CONVERGED
          -----------------
     TIME TO FORM FOCK OPERATORS=       0.7 SECONDS (       0.1 SEC/ITER)
     TIME TO SOLVE SCF EQUATIONS=       0.0 SECONDS (       0.0 SEC/ITER)

 FINAL RHF ENERGY IS    -2590.4811714668 AFTER  12 ITERATIONS

          ------------
          EIGENVECTORS
          ------------

                      1          2          3          4          5
                 -460.8270   -60.6502   -54.2570   -54.2562   -54.2551
                     A          A          A          A          A   
    1  C  1  S    0.000004  -0.000001  -0.000019   0.000040  -0.000001
    2  C  1  S    0.000020  -0.000006  -0.000177   0.000302  -0.000005
    3  C  1  X    0.000007  -0.000002  -0.000025   0.000025   0.000004
    4  C  1  Y    0.000019  -0.000006  -0.000045   0.000057  -0.000004
    5  C  1  Z   -0.000011   0.000003   0.000020  -0.000032  -0.000008
    6  C  1  S   -0.000076   0.000021   0.000501  -0.000957   0.000030
    7  C  1  X    0.000006  -0.000005   0.000014   0.000114  -0.000047
    8  C  1  Y    0.000008  -0.000015  -0.000150   0.000278   0.000053
    9  C  1  Z   -0.000005   0.000011   0.000146  -0.000152   0.000090
   10  C  1 XX    0.000001   0.000002  -0.000028   0.000047   0.000015
   11  C  1 YY   -0.000012   0.000005   0.000082  -0.000110  -0.000028
   12  C  1 ZZ   -0.000001   0.000003   0.000013   0.000032   0.000007
   13  C  1 XY   -0.000008   0.000001   0.000046  -0.000104   0.000001
   14  C  1 XZ    0.000004  -0.000001  -0.000019   0.000056  -0.000015
   15  C  1 YZ    0.000011  -0.000003  -0.000099   0.000121  -0.000015
   16  H  2  S    0.000006  -0.000003  -0.000018   0.000024   0.000008
   17  H  2  S    0.000021   0.000009  -0.000016   0.000222  -0.000153
   18  H  3  S    0.000006  -0.000003  -0.000015   0.000026  -0.000010
   19  H  3  S    0.000020   0.000010  -0.000032   0.000210   0.000167
   20  H  4  S    0.000006  -0.000002  -0.000020   0.000045  -0.000002
   21  H  4  S    0.000018   0.000002  -0.000268   0.000101  -0.000013
   22  SE 5  S    0.995306   0.312329  -0.000044  -0.000332  -0.000009
   23  SE 5  S   -0.017781   1.034721  -0.000153  -0.001151  -0.000032
   24  SE 5  X   -0.000002   0.000246   0.865164   0.149583  -0.470175
   25  SE 5  Y    0.000005  -0.000635   0.430624  -0.692136   0.572244
   26  SE 5  Z   -0.000006   0.000761   0.240800   0.700365   0.665941
   27  SE 5  S   -0.015664   0.007768  -0.000097  -0.000162   0.000001
   28  SE 5  X   -0.000001   0.000023   0.009529   0.001631  -0.005130
   29  SE 5  Y   -0.000006  -0.000045   0.004756  -0.007628   0.006241
   30  SE 5  Z    0.000005   0.000058   0.002637   0.007702   0.007259
   31  SE 5  S    0.003796   0.000212  -0.000368   0.000652   0.000056
   32  SE 5  X    0.000007  -0.000006  -0.001441  -0.000200   0.000719
   33  SE 5  Y    0.000017   0.000010  -0.000766   0.001243  -0.000860
   34  SE 5  Z   -0.000012  -0.000015  -0.000341  -0.001191  -0.000987
   35  SE 5  S   -0.000097  -0.000019  -0.000150   0.000155  -0.000045
   36  SE 5  X    0.000012  -0.000004   0.000728   0.000299  -0.000363
   37  SE 5  Y    0.000006  -0.000024   0.000226  -0.000327   0.000373
   38  SE 5  Z    0.000004   0.000021   0.000292   0.000461   0.000428
   39  SE 5 XX   -0.008471  -0.005010  -0.000067  -0.000052   0.000019
   40  SE 5 YY   -0.008471  -0.004990  -0.000020  -0.000098   0.000054
   41  SE 5 ZZ   -0.008472  -0.004979  -0.000071  -0.000126  -0.000070
   42  SE 5 XY    0.000001  -0.000029   0.000031   0.000035  -0.000037
   43  SE 5 XZ    0.000001  -0.000024  -0.000048  -0.000025   0.000017
   44  SE 5 YZ   -0.000002   0.000019  -0.000004   0.000065  -0.000001
   45  SE 5 XX   -0.000241   0.000744  -0.000087   0.000102   0.000006
   46  SE 5 YY   -0.000239   0.000738  -0.000057   0.000073   0.000002
   47  SE 5 ZZ   -0.000236   0.000734  -0.000075   0.000120   0.000029
   48  SE 5 XY   -0.000004   0.000008   0.000007  -0.000041   0.000010
   49  SE 5 XZ   -0.000003   0.000007  -0.000006   0.000016  -0.000006
   50  SE 5 YZ    0.000005  -0.000006  -0.000024   0.000023   0.000001
   51  SE 5 XX    0.001260   0.000024  -0.000136   0.000249   0.000042
   52  SE 5 YY    0.001259   0.000031  -0.000271   0.000403   0.000024
   53  SE 5 ZZ    0.001251   0.000038  -0.000167   0.000253   0.000032
   54  SE 5 XY    0.000010  -0.000012  -0.000057   0.000117  -0.000006
   55  SE 5 XZ    0.000007  -0.000010   0.000057  -0.000044   0.000006
   56  SE 5 YZ   -0.000014   0.000011   0.000087  -0.000141  -0.000001
   57  H  6  S   -0.000034   0.000012  -0.000235  -0.000134  -0.000003
   58  H  6  S    0.000027   0.000014   0.000299   0.000178  -0.000021
   59  O  7  S    0.000001  -0.000001   0.000007   0.000001   0.000005
   60  O  7  S    0.000004  -0.000003   0.000055   0.000017   0.000011
   61  O  7  X   -0.000010   0.000004   0.000034   0.000007  -0.000005
   62  O  7  Y   -0.000001  -0.000000   0.000014   0.000004  -0.000006
   63  O  7  Z   -0.000006   0.000002   0.000026   0.000021   0.000002
   64  O  7  S    0.000007   0.000005  -0.000319  -0.000101  -0.000056
   65  O  7  X    0.000042  -0.000021  -0.000198  -0.000029   0.000029
   66  O  7  Y    0.000018  -0.000004  -0.000140  -0.000049   0.000033
   67  O  7  Z    0.000023  -0.000012  -0.000118  -0.000083  -0.000011
   68  O  7 XX    0.000004  -0.000004  -0.000008  -0.000012   0.000019
   69  O  7 YY    0.000010  -0.000005   0.000001  -0.000004   0.000019
   70  O  7 ZZ    0.000007  -0.000004   0.000009  -0.000006   0.000023
   71  O  7 XY    0.000006  -0.000003  -0.000036  -0.000016   0.000009
   72  O  7 XZ   -0.000003   0.000000  -0.000005  -0.000001   0.000001
   73  O  7 YZ    0.000002  -0.000001  -0.000014  -0.000007   0.000000
   74  O  8  S    0.000002  -0.000001  -0.000016  -0.000008   0.000003
   75  O  8  S    0.000012  -0.000004  -0.000079  -0.000036   0.000014
   76  O  8  X   -0.000000  -0.000000  -0.000003  -0.000000  -0.000001
   77  O  8  Y   -0.000001   0.000000   0.000008   0.000008  -0.000004
   78  O  8  Z    0.000000  -0.000000  -0.000004  -0.000004  -0.000002
   79  O  8  S   -0.000062   0.000020   0.000412   0.000174  -0.000061
   80  O  8  X    0.000026  -0.000009  -0.000175  -0.000064   0.000023
   81  O  8  Y    0.000015  -0.000006  -0.000101  -0.000050   0.000022
   82  O  8  Z    0.000006  -0.000001  -0.000035   0.000007   0.000020
   83  O  8 XX    0.000001   0.000001  -0.000002  -0.000005   0.000004
   84  O  8 YY    0.000009  -0.000002  -0.000055  -0.000026   0.000010
   85  O  8 ZZ    0.000007  -0.000002  -0.000046  -0.000025   0.000010
   86  O  8 XY   -0.000004   0.000003   0.000033   0.000015  -0.000004
   87  O  8 XZ   -0.000003   0.000001   0.000023   0.000003  -0.000007
   88  O  8 YZ   -0.000002   0.000001   0.000012   0.000004  -0.000005
   89  H  9  S   -0.000001  -0.000001   0.000015   0.000010  -0.000015
   90  H  9  S    0.000018  -0.000001  -0.000139  -0.000136   0.000125
   91  H 10  S    0.000004  -0.000002  -0.000023  -0.000013   0.000005
   92  H 10  S    0.000002  -0.000001  -0.000029  -0.000022  -0.000010

                      6          7          8          9         10
                  -20.6406   -20.6373   -11.2416    -8.8987    -6.6339
                     A          A          A          A          A   
    1  C  1  S   -0.000004  -0.000006   0.995741   0.000044  -0.000053
    2  C  1  S   -0.000031  -0.000016   0.028118  -0.000164   0.000064
    3  C  1  X    0.000002  -0.000009  -0.000151   0.000025  -0.000020
    4  C  1  Y   -0.000019  -0.000006  -0.000345   0.000049  -0.000054
    5  C  1  Z    0.000001  -0.000004   0.000192  -0.000024   0.000035
    6  C  1  S    0.000236   0.000142  -0.013124   0.000589  -0.000613
    7  C  1  X    0.000100   0.000050   0.000070  -0.000034  -0.000116
    8  C  1  Y    0.000052   0.000035   0.000456  -0.000006   0.000089
    9  C  1  Z    0.000103   0.000024  -0.000364  -0.000017  -0.000176
   10  C  1 XX   -0.000004  -0.000011  -0.001813  -0.000033   0.000020
   11  C  1 YY   -0.000003  -0.000014  -0.002053  -0.000027   0.000102
   12  C  1 ZZ    0.000008  -0.000014  -0.001846  -0.000041   0.000017
   13  C  1 XY   -0.000018   0.000000  -0.000144   0.000011   0.000059
   14  C  1 XZ    0.000005   0.000000   0.000077  -0.000007  -0.000049
   15  C  1 YZ    0.000001   0.000000   0.000183  -0.000002  -0.000046
   16  H  2  S   -0.000014  -0.000006   0.000073  -0.000017   0.000046
   17  H  2  S   -0.000030  -0.000014   0.002157  -0.000256   0.000047
   18  H  3  S   -0.000011  -0.000003   0.000077  -0.000015   0.000045
   19  H  3  S    0.000040  -0.000012   0.002130  -0.000255   0.000056
   20  H  4  S    0.000019   0.000025   0.000078  -0.000029   0.000050
   21  H  4  S   -0.000194  -0.000153   0.002335  -0.000151   0.000426
   22  SE 5  S    0.000001  -0.000000  -0.000001  -0.122712   0.000127
   23  SE 5  S   -0.000005   0.000001   0.000004  -0.475085   0.000509
   24  SE 5  X   -0.000005   0.000001   0.000005  -0.000670  -0.351142
   25  SE 5  Y    0.000000  -0.000000   0.000021   0.001540  -0.177097
   26  SE 5  Z   -0.000002   0.000001  -0.000013  -0.001929  -0.094075
   27  SE 5  S   -0.000034   0.000014   0.000097   1.094720  -0.001011
   28  SE 5  X    0.000017  -0.000004  -0.000019   0.001722   0.930837
   29  SE 5  Y   -0.000001   0.000000  -0.000077  -0.003989   0.469452
   30  SE 5  Z    0.000006  -0.000002   0.000049   0.004986   0.249393
   31  SE 5  S   -0.000255   0.000071  -0.000336  -0.003028   0.000071
   32  SE 5  X   -0.000020   0.000007   0.000198   0.000150   0.008442
   33  SE 5  Y    0.000007  -0.000001   0.000654  -0.000425   0.004332
   34  SE 5  Z    0.000002   0.000008  -0.000397   0.000515   0.002184
   35  SE 5  S   -0.000272   0.000050   0.002108   0.001227   0.000111
   36  SE 5  X   -0.000604   0.000060   0.000463  -0.000142  -0.001394
   37  SE 5  Y   -0.000064  -0.000003   0.000954   0.000184  -0.000709
   38  SE 5  Z   -0.000333   0.000013  -0.000561  -0.000279  -0.000370
   39  SE 5 XX   -0.000015   0.000006   0.000039   0.000823  -0.001038
   40  SE 5 YY    0.000004   0.000002   0.000010   0.001080   0.001675
   41  SE 5 ZZ    0.000002   0.000003   0.000026   0.001305  -0.000411
   42  SE 5 XY   -0.000002  -0.000000  -0.000008  -0.000471   0.000935
   43  SE 5 XZ   -0.000011   0.000002   0.000013  -0.000372  -0.002073
   44  SE 5 YZ    0.000000  -0.000000   0.000012   0.000348  -0.000656
   45  SE 5 XX    0.000034  -0.000001  -0.000063  -0.000690  -0.000521
   46  SE 5 YY   -0.000040   0.000015   0.000034  -0.000248   0.000625
   47  SE 5 ZZ   -0.000032   0.000013  -0.000020   0.000015  -0.000447
   48  SE 5 XY    0.000009   0.000001   0.000025  -0.000648   0.000584
   49  SE 5 XZ    0.000043  -0.000006  -0.000049  -0.000554  -0.001031
   50  SE 5 YZ   -0.000001   0.000002  -0.000034   0.000447  -0.000207
   51  SE 5 XX   -0.000204   0.000048  -0.000038  -0.002751   0.000114
   52  SE 5 YY    0.000043   0.000001  -0.000017  -0.002832   0.000043
   53  SE 5 ZZ    0.000018   0.000009  -0.000108  -0.002848   0.000053
   54  SE 5 XY   -0.000022  -0.000004   0.000104   0.000081  -0.000013
   55  SE 5 XZ   -0.000138   0.000021   0.000044   0.000065   0.000056
   56  SE 5 YZ    0.000006  -0.000005  -0.000141  -0.000014  -0.000040
   57  H  6  S    0.000106  -0.000014  -0.000110  -0.000055  -0.000249
   58  H  6  S   -0.000390   0.000028  -0.000170  -0.000248   0.000014
   59  O  7  S    0.993344  -0.051569   0.000002  -0.000003   0.000008
   60  O  7  S    0.020996  -0.000947   0.000014  -0.000017   0.000039
   61  O  7  X    0.001462   0.000213  -0.000010   0.000028  -0.000070
   62  O  7  Y   -0.000499   0.000167  -0.000003   0.000006  -0.000011
   63  O  7  Z    0.000078   0.000091   0.000024   0.000012  -0.000045
   64  O  7  S    0.003807   0.000077   0.000009  -0.000003   0.000098
   65  O  7  X   -0.001286   0.000232   0.000250  -0.000119   0.000467
   66  O  7  Y    0.000113  -0.000011  -0.000000  -0.000069   0.000144
   67  O  7  Z   -0.000292   0.000148   0.000048  -0.000051   0.000258
   68  O  7 XX   -0.004269   0.000241  -0.000001   0.000008  -0.000066
   69  O  7 YY   -0.004079   0.000212   0.000004  -0.000024   0.000059
   70  O  7 ZZ   -0.003902   0.000186  -0.000008  -0.000017   0.000031
   71  O  7 XY   -0.000181   0.000022   0.000021  -0.000013   0.000054
   72  O  7 XZ   -0.000166   0.000036   0.000002   0.000016  -0.000076
   73  O  7 YZ   -0.000183   0.000038  -0.000005  -0.000004   0.000019
   74  O  8  S    0.051480   0.993396   0.000023  -0.000006   0.000013
   75  O  8  S    0.001161   0.021047   0.000081  -0.000033   0.000078
   76  O  8  X   -0.000372  -0.001168  -0.000025   0.000002   0.000003
   77  O  8  Y   -0.000156  -0.000517   0.000025   0.000005  -0.000018
   78  O  8  Z   -0.000078   0.000724  -0.000030   0.000001   0.000008
   79  O  8  S    0.000829   0.003376  -0.000393   0.000169  -0.000467
   80  O  8  X   -0.000276   0.000676   0.000164  -0.000066   0.000171
   81  O  8  Y   -0.000262   0.000321  -0.000018  -0.000038   0.000144
   82  O  8  Z   -0.000071  -0.000235   0.000138  -0.000022   0.000012
   83  O  8 XX   -0.000167  -0.004065   0.000055  -0.000008   0.000010
   84  O  8 YY   -0.000237  -0.003755   0.000080  -0.000025   0.000046
   85  O  8 ZZ   -0.000231  -0.003942   0.000082  -0.000019   0.000033
   86  O  8 XY    0.000097  -0.000231  -0.000011   0.000006  -0.000024
   87  O  8 XZ    0.000043  -0.000131  -0.000034   0.000008  -0.000012
   88  O  8 YZ    0.000037  -0.000090   0.000001   0.000003  -0.000009
   89  H  9  S    0.000331  -0.000087   0.000013   0.000007   0.000004
   90  H  9  S   -0.000049  -0.000085  -0.000135  -0.000080   0.000177
   91  H 10  S   -0.000082   0.000367  -0.000010  -0.000007   0.000027
   92  H 10  S   -0.000080  -0.000176  -0.000021  -0.000005   0.000048

                     11         12         13         14         15
                   -6.6302    -6.6237    -2.6026    -2.6005    -2.5930
                     A          A          A          A          A   
    1  C  1  S    0.000096   0.000000   0.001268  -0.000427   0.000013
    2  C  1  S   -0.000002  -0.000002  -0.000994   0.000290   0.000099
    3  C  1  X    0.000044   0.000002   0.000941   0.000313   0.000288
    4  C  1  Y    0.000107   0.000001   0.002050  -0.000834  -0.000353
    5  C  1  Z   -0.000057  -0.000002  -0.001076   0.000961  -0.000342
    6  C  1  S    0.000630   0.000017   0.001572  -0.000775  -0.000481
    7  C  1  X   -0.000037   0.000027  -0.000342  -0.002095  -0.001105
    8  C  1  Y   -0.000024  -0.000037  -0.000545   0.000331   0.001267
    9  C  1  Z   -0.000011  -0.000028   0.000245  -0.001877   0.000941
   10  C  1 XX   -0.000008  -0.000000  -0.000121   0.000054   0.000041
   11  C  1 YY   -0.000189  -0.000012  -0.001264   0.000649   0.000051
   12  C  1 ZZ   -0.000042   0.000007  -0.000274   0.000094  -0.000015
   13  C  1 XY   -0.000102   0.000001  -0.000721   0.000349   0.000004
   14  C  1 XZ    0.000055  -0.000003   0.000318  -0.000344   0.000003
   15  C  1 YZ    0.000143  -0.000001   0.000958  -0.000328   0.000012
   16  H  2  S   -0.000060   0.000002  -0.000488  -0.000107  -0.000157
   17  H  2  S   -0.000277   0.000062   0.000200  -0.000820  -0.000983
   18  H  3  S   -0.000061  -0.000005  -0.000464  -0.000057   0.000195
   19  H  3  S   -0.000271  -0.000062   0.000133  -0.000860   0.000817
   20  H  4  S   -0.000069  -0.000002  -0.000394   0.000657   0.000018
   21  H  4  S   -0.000131   0.000006   0.000303   0.000922   0.000076
   22  SE 5  S    0.000855   0.000041  -0.000115  -0.000153  -0.000003
   23  SE 5  S    0.003402   0.000161  -0.000423  -0.000569   0.000007
   24  SE 5  X   -0.066657   0.189207  -0.001170   0.000685   0.000025
   25  SE 5  Y    0.282009  -0.229520  -0.001009  -0.000442   0.000071
   26  SE 5  Z   -0.282095  -0.274159   0.000029   0.000873   0.000072
   27  SE 5  S   -0.007242  -0.000356   0.001241   0.001603   0.000090
   28  SE 5  X    0.176728  -0.501716   0.003240  -0.001949  -0.000080
   29  SE 5  Y   -0.747639   0.608613   0.002829   0.001278  -0.000194
   30  SE 5  Z    0.747876   0.726981  -0.000102  -0.002502  -0.000191
   31  SE 5  S   -0.001577  -0.000067  -0.001408  -0.002146   0.000112
   32  SE 5  X    0.001424  -0.003523  -0.000432   0.000402   0.000021
   33  SE 5  Y   -0.006331   0.004275  -0.000475  -0.000730   0.000030
   34  SE 5  Z    0.006271   0.005104   0.000038   0.000978  -0.000077
   35  SE 5  S    0.000112  -0.000023   0.001809   0.001045   0.000663
   36  SE 5  X   -0.000196   0.000357  -0.001515   0.001732   0.001408
   37  SE 5  Y    0.000996  -0.000481  -0.001572   0.001261  -0.000103
   38  SE 5  Z   -0.000963  -0.000573  -0.000045   0.000037   0.000087
   39  SE 5 XX    0.001271   0.000528   0.431278   0.285509   0.519394
   40  SE 5 YY   -0.000110   0.001280  -0.427133   0.084244  -0.366495
   41  SE 5 ZZ   -0.000326  -0.001777  -0.004205  -0.369848  -0.152880
   42  SE 5 XY    0.000312  -0.000898  -0.073772   0.583617  -0.188131
   43  SE 5 XZ   -0.000793   0.000342   0.469400  -0.162591  -0.367785
   44  SE 5 YZ    0.002255  -0.000047   0.295231   0.204211  -0.323047
   45  SE 5 XX   -0.000015   0.000408   0.226782   0.150349   0.272543
   46  SE 5 YY   -0.001038   0.001031  -0.224329   0.044426  -0.192302
   47  SE 5 ZZ   -0.001519  -0.001551  -0.002066  -0.194455  -0.080302
   48  SE 5 XY    0.000672  -0.000766  -0.038735   0.307062  -0.098783
   49  SE 5 XZ   -0.000528   0.000286   0.246650  -0.085533  -0.193020
   50  SE 5 YZ    0.001460  -0.000050   0.155228   0.107483  -0.169526
   51  SE 5 XX   -0.000621  -0.000099   0.025752   0.015475   0.029650
   52  SE 5 YY   -0.000594  -0.000111  -0.026211   0.004045  -0.021153
   53  SE 5 ZZ   -0.000508   0.000138  -0.000643  -0.022281  -0.008806
   54  SE 5 XY   -0.000116   0.000087  -0.004621   0.033726  -0.010640
   55  SE 5 XZ    0.000076  -0.000026   0.028502  -0.009578  -0.020956
   56  SE 5 YZ   -0.000103   0.000013   0.017506   0.011733  -0.018466
   57  H  6  S   -0.000167  -0.000002   0.005016   0.000455  -0.000200
   58  H  6  S    0.000031  -0.000011  -0.003465   0.000562   0.000699
   59  O  7  S    0.000003  -0.000006  -0.000068   0.000078  -0.000007
   60  O  7  S    0.000029  -0.000032   0.000960   0.000463   0.000301
   61  O  7  X   -0.000019   0.000002  -0.000791  -0.000086  -0.000161
   62  O  7  Y   -0.000016   0.000013   0.000021   0.000275  -0.000096
   63  O  7  Z   -0.000016   0.000013  -0.000324  -0.000206  -0.000268
   64  O  7  S    0.000003   0.000101  -0.000603  -0.001735  -0.000330
   65  O  7  X    0.000174  -0.000046   0.002806   0.000276   0.000878
   66  O  7  Y    0.000100  -0.000083   0.000587  -0.000903   0.000627
   67  O  7  Z    0.000135  -0.000070   0.001123   0.000435   0.000986
   68  O  7 XX   -0.000052  -0.000015  -0.000114   0.000241   0.000119
   69  O  7 YY    0.000016  -0.000010   0.000530   0.000373   0.000072
   70  O  7 ZZ    0.000017  -0.000005   0.000382   0.000263   0.000054
   71  O  7 XY    0.000009   0.000000   0.000189   0.000053   0.000085
   72  O  7 XZ   -0.000025   0.000023  -0.000323  -0.000149  -0.000097
   73  O  7 YZ   -0.000010   0.000013   0.000063   0.000082  -0.000052
   74  O  8  S    0.000010  -0.000002   0.000062  -0.000030   0.000025
   75  O  8  S    0.000046  -0.000012   0.000358  -0.000115   0.000158
   76  O  8  X   -0.000005   0.000005   0.000009   0.000036  -0.000025
   77  O  8  Y   -0.000008   0.000000  -0.000050  -0.000017   0.000014
   78  O  8  Z   -0.000000  -0.000001   0.000012   0.000028   0.000029
   79  O  8  S   -0.000261   0.000064  -0.002201   0.000626  -0.000924
   80  O  8  X    0.000086  -0.000037   0.000929  -0.000318   0.000576
   81  O  8  Y    0.000054  -0.000005   0.000656   0.000075   0.000113
   82  O  8  Z    0.000006   0.000004   0.000244  -0.000211  -0.000069
   83  O  8 XX    0.000022  -0.000003   0.000039  -0.000030  -0.000044
   84  O  8 YY    0.000038  -0.000013   0.000205  -0.000140   0.000118
   85  O  8 ZZ    0.000031  -0.000006   0.000164  -0.000085   0.000063
   86  O  8 XY   -0.000004  -0.000002  -0.000121  -0.000028  -0.000054
   87  O  8 XZ   -0.000001   0.000000  -0.000087   0.000053  -0.000017
   88  O  8 YZ   -0.000000  -0.000000  -0.000051  -0.000000   0.000002
   89  H  9  S    0.000023  -0.000045   0.000094  -0.000217   0.000514
   90  H  9  S    0.000144  -0.000075   0.000211  -0.000143  -0.000389
   91  H 10  S    0.000011  -0.000015   0.000106   0.000028   0.000143
   92  H 10  S    0.000031   0.000015   0.000095  -0.000064  -0.000035

                     16         17         18         19         20
                   -2.5892    -2.5883    -1.5091    -1.2205    -0.9911
                     A          A          A          A          A   
    1  C  1  S   -0.000034   0.000806  -0.000675   0.003488   0.163093
    2  C  1  S   -0.000001  -0.001083   0.001128  -0.005763  -0.303506
    3  C  1  X    0.000250   0.000865   0.000351  -0.000710   0.004012
    4  C  1  Y   -0.000384   0.001640  -0.000487   0.002336   0.012378
    5  C  1  Z   -0.000416  -0.000826   0.000574  -0.001911  -0.008506
    6  C  1  S    0.000112   0.003262  -0.000223  -0.006050  -0.302674
    7  C  1  X   -0.000608  -0.001308  -0.000383  -0.000597   0.002777
    8  C  1  Y    0.000900  -0.001589   0.000232   0.000389   0.003821
    9  C  1  Z    0.001333   0.000553  -0.000656  -0.001154  -0.002177
   10  C  1 XX    0.000103  -0.000156   0.000051  -0.000153  -0.009047
   11  C  1 YY    0.000018  -0.001084   0.000018  -0.000292  -0.007617
   12  C  1 ZZ   -0.000122  -0.000372  -0.000026  -0.000173  -0.009296
   13  C  1 XY   -0.000073  -0.000493   0.000047   0.000051   0.001160
   14  C  1 XZ   -0.000021   0.000305   0.000029  -0.000206  -0.000808
   15  C  1 YZ   -0.000083   0.000694  -0.000115   0.000417  -0.000605
   16  H  2  S   -0.000324  -0.000475   0.000081  -0.001213  -0.108703
   17  H  2  S   -0.000384   0.000432   0.000128   0.000286  -0.023317
   18  H  3  S    0.000360  -0.000433   0.000241  -0.001452  -0.108354
   19  H  3  S    0.000558   0.000532  -0.000693   0.000085  -0.023560
   20  H  4  S   -0.000032  -0.000347   0.001481  -0.003432  -0.109483
   21  H  4  S   -0.000123   0.000899   0.000287   0.000209  -0.021693
   22  SE 5  S   -0.000003   0.000330  -0.000377   0.001418   0.018750
   23  SE 5  S   -0.000022   0.001191  -0.001208   0.004990   0.067117
   24  SE 5  X    0.000608   0.000358   0.000741  -0.001821  -0.001740
   25  SE 5  Y   -0.000718  -0.000760   0.000016  -0.000048  -0.012771
   26  SE 5  Z   -0.000982   0.000758   0.000300  -0.000573   0.009966
   27  SE 5  S   -0.000001  -0.003579   0.004678  -0.016373  -0.215469
   28  SE 5  X   -0.001735  -0.001010  -0.002386   0.005888   0.005753
   29  SE 5  Y    0.002050   0.002130  -0.000056   0.000149   0.041930
   30  SE 5  Z    0.002801  -0.002119  -0.000968   0.001854  -0.032695
   31  SE 5  S   -0.000070   0.003772  -0.006504   0.034298   0.425269
   32  SE 5  X    0.000659   0.000422   0.003695  -0.010419  -0.010606
   33  SE 5  Y   -0.000734  -0.000334   0.000296  -0.000151  -0.082572
   34  SE 5  Z   -0.000958   0.000380   0.001629  -0.003430   0.065047
   35  SE 5  S   -0.000236  -0.006151   0.007087  -0.009611  -0.079880
   36  SE 5  X   -0.000840   0.000105   0.008294  -0.002886   0.000218
   37  SE 5  Y    0.000107  -0.002391  -0.000384   0.000798   0.001421
   38  SE 5  Z   -0.000248   0.002307   0.003127  -0.000301   0.000279
   39  SE 5 XX   -0.142846  -0.041018  -0.001224   0.002384  -0.002142
   40  SE 5 YY   -0.483422  -0.046696   0.000805  -0.001294   0.006994
   41  SE 5 ZZ    0.626251   0.087833   0.000494  -0.000931  -0.003156
   42  SE 5 XY    0.334979  -0.256581   0.000006  -0.000044   0.009647
   43  SE 5 XZ   -0.126694  -0.401774  -0.001052   0.001951   0.000369
   44  SE 5 YZ   -0.036064   0.570502   0.000085  -0.000462  -0.012677
   45  SE 5 XX   -0.074862  -0.021677  -0.001061   0.001558   0.001568
   46  SE 5 YY   -0.253276  -0.024726   0.000200   0.000429   0.004801
   47  SE 5 ZZ    0.328225   0.045693   0.000087   0.000460   0.001134
   48  SE 5 XY    0.175570  -0.134292  -0.000012   0.000072   0.003484
   49  SE 5 XZ   -0.066350  -0.210346  -0.000621   0.000576   0.000367
   50  SE 5 YZ   -0.018860   0.298709   0.000055  -0.000124  -0.004898
   51  SE 5 XX   -0.008100  -0.001182   0.001191   0.001484   0.003493
   52  SE 5 YY   -0.027646  -0.001299  -0.001848   0.002706  -0.008964
   53  SE 5 ZZ    0.035903   0.006577  -0.001803   0.003152   0.004263
   54  SE 5 XY    0.019175  -0.015080   0.000047  -0.000305  -0.012121
   55  SE 5 XZ   -0.007331  -0.023504   0.001384  -0.000472  -0.001216
   56  SE 5 YZ   -0.002116   0.033276  -0.000175   0.000270   0.018367
   57  H  6  S    0.000165  -0.002525  -0.000537  -0.001556  -0.061608
   58  H  6  S   -0.000531   0.003196   0.003893  -0.000484  -0.023785
   59  O  7  S    0.000015   0.000007  -0.150800   0.147863  -0.008182
   60  O  7  S   -0.000138  -0.000523   0.347128  -0.346445   0.018313
   61  O  7  X    0.000101   0.000358   0.088730   0.036301   0.020250
   62  O  7  Y    0.000075  -0.000036  -0.003995   0.102938  -0.018596
   63  O  7  Z    0.000128   0.000132   0.016288   0.064490   0.007052
   64  O  7  S   -0.000002   0.000799   0.272599  -0.353349   0.023372
   65  O  7  X   -0.000540  -0.001315   0.040467   0.016185   0.010013
   66  O  7  Y   -0.000375  -0.000031  -0.007523   0.053538  -0.009894
   67  O  7  Z   -0.000512  -0.000575   0.007002   0.031314   0.004222
   68  O  7 XX   -0.000035   0.000017   0.023239   0.005641  -0.000301
   69  O  7 YY   -0.000000  -0.000309   0.013148  -0.020754   0.001043
   70  O  7 ZZ   -0.000009  -0.000234   0.004478  -0.005000  -0.001125
   71  O  7 XY   -0.000038  -0.000082   0.004175   0.013807  -0.001234
   72  O  7 XZ    0.000047   0.000148   0.008289   0.008587  -0.000727
   73  O  7 YZ    0.000042  -0.000032   0.009280  -0.006762   0.000723
   74  O  8  S   -0.000015  -0.000022  -0.147043  -0.150975   0.005339
   75  O  8  S   -0.000091  -0.000130   0.338116   0.354286  -0.012641
   76  O  8  X    0.000016  -0.000007  -0.083390   0.038159  -0.008261
   77  O  8  Y   -0.000013   0.000027  -0.040801   0.032901  -0.010080
   78  O  8  Z   -0.000012  -0.000008   0.014352   0.110056  -0.010460
   79  O  8  S    0.000556   0.000822   0.261613   0.354620  -0.016244
   80  O  8  X   -0.000353  -0.000321  -0.030487   0.016253  -0.004034
   81  O  8  Y   -0.000048  -0.000300  -0.016923   0.012927  -0.005481
   82  O  8  Z    0.000009  -0.000070   0.012678   0.056767  -0.005430
   83  O  8 XX    0.000022  -0.000022   0.018994  -0.006329   0.001544
   84  O  8 YY   -0.000074  -0.000061   0.004059   0.000468   0.000593
   85  O  8 ZZ   -0.000040  -0.000059   0.014390   0.027359  -0.001832
   86  O  8 XY    0.000029   0.000055   0.012050  -0.006983   0.001723
   87  O  8 XZ    0.000014   0.000023   0.003444  -0.008649   0.000848
   88  O  8 YZ   -0.000002   0.000022   0.003906  -0.001720   0.000353
   89  H  9  S   -0.000362   0.000010   0.082192  -0.126356   0.013668
   90  H  9  S    0.000400  -0.000082  -0.012664   0.003657   0.000792
   91  H 10  S   -0.000073  -0.000042   0.080695   0.129181  -0.008084
   92  H 10  S    0.000019  -0.000037  -0.009138  -0.000803  -0.001366

                     21         22         23         24         25
                   -0.8331    -0.7399    -0.7257    -0.6459    -0.5771
                     A          A          A          A          A   
    1  C  1  S   -0.103465   0.007629  -0.001635  -0.004979   0.000004
    2  C  1  S    0.198045  -0.015065   0.002116   0.008357  -0.000887
    3  C  1  X    0.051895   0.007825   0.016291  -0.096946  -0.126057
    4  C  1  Y    0.109878  -0.008404   0.008385   0.016569   0.227491
    5  C  1  Z   -0.056497   0.015655   0.007860  -0.063043   0.350225
    6  C  1  S    0.215347  -0.020042   0.006213   0.023197   0.006229
    7  C  1  X    0.018856   0.004156   0.005903  -0.046787  -0.062102
    8  C  1  Y    0.040343  -0.006002   0.003094   0.013651   0.116999
    9  C  1  Z   -0.021780   0.006912   0.006163  -0.030161   0.182412
   10  C  1 XX    0.009100  -0.000167   0.000527  -0.002899   0.018213
   11  C  1 YY   -0.005262  -0.000374  -0.001066   0.002274   0.011891
   12  C  1 ZZ    0.007254  -0.000714   0.000055   0.000082  -0.030236
   13  C  1 XY   -0.008673   0.001067  -0.000230  -0.003953  -0.010367
   14  C  1 XZ    0.004973   0.000819   0.001482  -0.006434   0.008812
   15  C  1 YZ    0.010834  -0.001164   0.000077   0.001843  -0.006370
   16  H  2  S    0.100715  -0.012009  -0.001207   0.046681   0.180899
   17  H  2  S    0.041432  -0.005324  -0.001305   0.027288   0.135585
   18  H  3  S    0.101119  -0.013041  -0.002425   0.028432  -0.259544
   19  H  3  S    0.041850  -0.007093   0.000082   0.018500  -0.194386
   20  H  4  S    0.102764   0.005163   0.013788  -0.064171   0.069637
   21  H  4  S    0.042556   0.009729   0.007352  -0.060182   0.045783
   22  SE 5  S    0.026876  -0.001016   0.001966  -0.000607  -0.000878
   23  SE 5  S    0.096396  -0.003609   0.007100  -0.002160  -0.003243
   24  SE 5  X    0.011474  -0.001035   0.006028  -0.019387  -0.002333
   25  SE 5  Y    0.005581   0.001390   0.000386   0.000838   0.010567
   26  SE 5  Z    0.004022   0.000089   0.005065  -0.009950   0.013563
   27  SE 5  S   -0.309771   0.012019  -0.022636   0.007264   0.009971
   28  SE 5  X   -0.037840   0.003407  -0.019890   0.064171   0.007792
   29  SE 5  Y   -0.018514  -0.004601  -0.001270  -0.002839  -0.035131
   30  SE 5  Z   -0.013175  -0.000321  -0.016734   0.032950  -0.045108
   31  SE 5  S    0.628939  -0.018344   0.043615  -0.002235  -0.022878
   32  SE 5  X    0.079498  -0.007199   0.041873  -0.137846  -0.017420
   33  SE 5  Y    0.037889   0.009973   0.002412   0.007360   0.076729
   34  SE 5  Z    0.028412   0.001095   0.035471  -0.071305   0.098738
   35  SE 5  S   -0.175400   0.007997  -0.009043  -0.011150   0.005823
   36  SE 5  X    0.000169   0.003726   0.010846  -0.021473  -0.011393
   37  SE 5  Y    0.005975   0.004657  -0.000242   0.004519   0.016464
   38  SE 5  Z   -0.001307   0.003177   0.012313  -0.006773   0.024460
   39  SE 5 XX    0.009902  -0.000525  -0.000172   0.002221   0.003233
   40  SE 5 YY   -0.008218   0.000571   0.000218   0.001171  -0.012191
   41  SE 5 ZZ    0.000480   0.000113   0.000065  -0.003137   0.008839
   42  SE 5 XY   -0.000546  -0.002026  -0.000569   0.001905   0.000396
   43  SE 5 XZ    0.012984  -0.000729  -0.000363  -0.004587  -0.002450
   44  SE 5 YZ    0.002394  -0.001025  -0.000635   0.001152  -0.003524
   45  SE 5 XX    0.005840  -0.000109  -0.000266   0.001329   0.000846
   46  SE 5 YY   -0.001337   0.001027  -0.000289   0.001967  -0.003666
   47  SE 5 ZZ    0.002099   0.000702  -0.000275   0.000041   0.003166
   48  SE 5 XY   -0.000431  -0.000672  -0.000250   0.000768   0.000261
   49  SE 5 XZ    0.005134  -0.000655   0.000066  -0.002299  -0.000690
   50  SE 5 YZ    0.000908  -0.000333  -0.000280   0.000539  -0.000981
   51  SE 5 XX   -0.014231   0.005400  -0.003387   0.009140  -0.003516
   52  SE 5 YY    0.015045  -0.000274  -0.001042  -0.001385   0.016274
   53  SE 5 ZZ    0.001399   0.001191  -0.001870   0.010058  -0.012539
   54  SE 5 XY    0.001455   0.002679   0.000741  -0.002905  -0.001164
   55  SE 5 XZ   -0.021815   0.003343  -0.002093   0.015258   0.000953
   56  SE 5 YZ   -0.002630   0.001104   0.001281  -0.001906   0.003133
   57  H  6  S   -0.127097   0.006195  -0.028172   0.067929  -0.018738
   58  H  6  S   -0.068704   0.008168  -0.014351   0.061464  -0.019129
   59  O  7  S   -0.003173  -0.016382  -0.050325   0.018881   0.002667
   60  O  7  S    0.005074   0.038232   0.117528  -0.045144  -0.006766
   61  O  7  X    0.046687   0.051277  -0.258725   0.255203   0.006164
   62  O  7  Y   -0.003642   0.415286   0.165918  -0.061426  -0.012656
   63  O  7  Z    0.003117   0.039658   0.218684   0.324083   0.021315
   64  O  7  S    0.013045   0.055643   0.191804  -0.092131  -0.009490
   65  O  7  X    0.025148   0.030081  -0.165456   0.175081   0.004027
   66  O  7  Y   -0.000176   0.247430   0.095013  -0.046218  -0.007656
   67  O  7  Z    0.001802   0.022487   0.134506   0.226769   0.016100
   68  O  7 XX    0.000268   0.020858  -0.017645   0.023789   0.001541
   69  O  7 YY   -0.000994  -0.023643  -0.006279  -0.006800  -0.000496
   70  O  7 ZZ   -0.002455  -0.001680   0.009855  -0.006543  -0.001244
   71  O  7 XY   -0.000788   0.029394   0.012383  -0.000264  -0.001410
   72  O  7 XZ   -0.000887   0.006584   0.013314   0.018694   0.000785
   73  O  7 YZ    0.000010  -0.007004  -0.006388  -0.005438  -0.001128
   74  O  8  S    0.003042  -0.005044   0.050951   0.035573  -0.000778
   75  O  8  S   -0.007610   0.013067  -0.119125  -0.083705   0.001278
   76  O  8  X   -0.016769  -0.184132  -0.181014  -0.215090   0.017862
   77  O  8  Y   -0.016264   0.078051   0.103103  -0.312381  -0.044127
   78  O  8  Z   -0.034649  -0.322389   0.335369   0.027426  -0.006764
   79  O  8  S   -0.011581   0.006944  -0.188802  -0.160718   0.004013
   80  O  8  X   -0.008957  -0.101689  -0.118883  -0.132239   0.012991
   81  O  8  Y   -0.009364   0.052484   0.064033  -0.207374  -0.031720
   82  O  8  Z   -0.019716  -0.187395   0.196528   0.021327  -0.004432
   83  O  8 XX    0.003077   0.029728   0.007683   0.019649  -0.000760
   84  O  8 YY    0.000978  -0.002624  -0.013533   0.005205   0.001282
   85  O  8 ZZ   -0.004000  -0.029250   0.020039  -0.011517  -0.001239
   86  O  8 XY    0.002765   0.004588  -0.002922   0.024479   0.001377
   87  O  8 XZ    0.002340   0.013836  -0.021024  -0.003945   0.000552
   88  O  8 YZ    0.000834   0.007316  -0.005719  -0.007714  -0.001409
   89  H  9  S    0.008225  -0.187608  -0.122582  -0.017759   0.000081
   90  H  9  S    0.001515  -0.077408  -0.056821  -0.013984   0.000555
   91  H 10  S   -0.019244  -0.158725   0.157364  -0.008018  -0.005927
   92  H 10  S   -0.005961  -0.067004   0.070852  -0.011864  -0.002899

                     26         27         28         29         30
                   -0.5741    -0.5238    -0.4925    -0.4713    -0.4171
                     A          A          A          A          A   
    1  C  1  S   -0.000529  -0.001080   0.001740  -0.010431   0.013251
    2  C  1  S   -0.001546   0.001007   0.003647   0.017016  -0.017796
    3  C  1  X    0.343862  -0.060542   0.182733  -0.103477   0.025717
    4  C  1  Y   -0.109953  -0.022039   0.132831  -0.190783   0.184958
    5  C  1  Z    0.175094  -0.052464   0.001090   0.072670  -0.136958
    6  C  1  S    0.022681   0.008972  -0.031868   0.058439  -0.069694
    7  C  1  X    0.189003  -0.038621   0.092807  -0.074995   0.036670
    8  C  1  Y   -0.052432  -0.012868   0.085851  -0.116727   0.138702
    9  C  1  Z    0.099455  -0.026538  -0.006275   0.047191  -0.084101
   10  C  1 XX    0.009009  -0.005360   0.010710  -0.007418  -0.002400
   11  C  1 YY   -0.010059   0.001604  -0.009091   0.009116  -0.004952
   12  C  1 ZZ    0.000580   0.003547  -0.000778   0.000437   0.005531
   13  C  1 XY    0.023371  -0.003557   0.004677   0.004774  -0.013737
   14  C  1 XZ    0.017319  -0.004732   0.009389  -0.007234  -0.000468
   15  C  1 YZ   -0.001994  -0.001150   0.009040  -0.009749   0.006227
   16  H  2  S   -0.190709   0.014042  -0.018588  -0.035371   0.067064
   17  H  2  S   -0.145196   0.009881  -0.017335  -0.040659   0.073935
   18  H  3  S   -0.055586   0.030884   0.002301  -0.024665   0.062096
   19  H  3  S   -0.040777   0.028598   0.008164  -0.023431   0.070497
   20  H  4  S    0.216306  -0.056071   0.125212  -0.071038  -0.012089
   21  H  4  S    0.133834  -0.048278   0.122827  -0.067814  -0.028248
   22  SE 5  S   -0.003362  -0.001385   0.001910  -0.003217  -0.012401
   23  SE 5  S   -0.012238  -0.005084   0.006952  -0.011762  -0.044652
   24  SE 5  X    0.017631   0.015519  -0.034462   0.035521   0.021414
   25  SE 5  Y    0.002167   0.001713  -0.022856   0.030633  -0.046280
   26  SE 5  Z    0.006005   0.011816  -0.002584   0.001570   0.054290
   27  SE 5  S    0.038667   0.015820  -0.021913   0.036550   0.144213
   28  SE 5  X   -0.058574  -0.051622   0.114771  -0.118370  -0.071567
   29  SE 5  Y   -0.007160  -0.005680   0.076068  -0.102078   0.154507
   30  SE 5  Z   -0.019957  -0.039321   0.008649  -0.005237  -0.181302
   31  SE 5  S   -0.083007  -0.039154   0.052293  -0.090420  -0.320989
   32  SE 5  X    0.127112   0.115392  -0.257318   0.264406   0.163599
   33  SE 5  Y    0.015321   0.012420  -0.168509   0.229451  -0.349351
   34  SE 5  Z    0.043101   0.087180  -0.021715   0.010585   0.412039
   35  SE 5  S    0.031875   0.026297  -0.031482   0.025587   0.260384
   36  SE 5  X    0.010024   0.027703  -0.047633   0.045039   0.036932
   37  SE 5  Y   -0.004566  -0.002597  -0.038715   0.040273  -0.118544
   38  SE 5  Z    0.003739   0.038292   0.013474   0.006925   0.115830
   39  SE 5 XX    0.000527   0.005664  -0.014637   0.022070   0.006146
   40  SE 5 YY   -0.004087  -0.003533   0.015766  -0.022399  -0.002656
   41  SE 5 ZZ    0.003295  -0.002334  -0.000923  -0.000289  -0.004476
   42  SE 5 XY   -0.010090   0.001477   0.002748  -0.005071   0.011933
   43  SE 5 XZ    0.011396   0.004346  -0.018288   0.024049   0.014119
   44  SE 5 YZ   -0.001607   0.002607  -0.011568   0.015404  -0.012607
   45  SE 5 XX    0.000471   0.002022  -0.004133   0.006479   0.002479
   46  SE 5 YY   -0.000650  -0.001206   0.005111  -0.007664  -0.000738
   47  SE 5 ZZ    0.001565  -0.000947  -0.000132  -0.001142   0.000139
   48  SE 5 XY   -0.003317   0.000458   0.000611  -0.000906   0.003001
   49  SE 5 XZ    0.003396   0.001361  -0.006059   0.007706   0.004979
   50  SE 5 YZ   -0.000603   0.000699  -0.003408   0.004636  -0.003616
   51  SE 5 XX   -0.002891  -0.013810   0.028185  -0.044624  -0.016941
   52  SE 5 YY    0.008967   0.006680  -0.029769   0.040674  -0.001526
   53  SE 5 ZZ   -0.003618   0.002301   0.004669  -0.001754  -0.004036
   54  SE 5 XY    0.013715  -0.001789  -0.006936   0.008908  -0.020557
   55  SE 5 XZ   -0.018291  -0.010496   0.037369  -0.046495  -0.030524
   56  SE 5 YZ    0.000716  -0.003401   0.021625  -0.029813   0.027321
   57  H  6  S   -0.052959  -0.070847   0.135854  -0.150695  -0.144616
   58  H  6  S   -0.060623  -0.066996   0.165352  -0.184481  -0.213514
   59  O  7  S    0.017489  -0.024661  -0.001205   0.026550   0.028176
   60  O  7  S   -0.040966   0.051981   0.002156  -0.059344  -0.060579
   61  O  7  X    0.093017  -0.289194  -0.082393   0.089639   0.111953
   62  O  7  Y   -0.008180   0.009740  -0.208850  -0.223783  -0.022177
   63  O  7  Z    0.076607   0.304099   0.297986   0.228392  -0.008351
   64  O  7  S   -0.075409   0.130490   0.009612  -0.132812  -0.154996
   65  O  7  X    0.064829  -0.208469  -0.056231   0.065808   0.079324
   66  O  7  Y   -0.005433   0.004596  -0.155267  -0.171543  -0.024762
   67  O  7  Z    0.055168   0.229177   0.238088   0.182668  -0.009936
   68  O  7 XX    0.011900  -0.005634  -0.011454  -0.000218   0.012753
   69  O  7 YY   -0.005582  -0.009039   0.017234   0.017193   0.001513
   70  O  7 ZZ   -0.001078  -0.003388  -0.006257  -0.006125  -0.000228
   71  O  7 XY   -0.002180   0.001662  -0.001142  -0.002390   0.002640
   72  O  7 XZ    0.007153   0.007873   0.002377   0.004748   0.003203
   73  O  7 YZ   -0.003360  -0.017552  -0.004819   0.000423   0.003324
   74  O  8  S    0.009157  -0.033394  -0.020774  -0.010422   0.000858
   75  O  8  S   -0.022825   0.071037   0.047747   0.025255  -0.001606
   76  O  8  X   -0.020694   0.343971   0.014587  -0.146569  -0.118704
   77  O  8  Y   -0.224203  -0.242567   0.295412   0.298131   0.013069
   78  O  8  Z    0.020118  -0.167797  -0.149920  -0.108491  -0.007170
   79  O  8  S   -0.041750   0.172144   0.099840   0.044667  -0.005580
   80  O  8  X   -0.010792   0.249318   0.007181  -0.114148  -0.095472
   81  O  8  Y   -0.159965  -0.187870   0.229778   0.235312   0.010991
   82  O  8  Z    0.014516  -0.121294  -0.110438  -0.076690  -0.001984
   83  O  8 XX    0.002349  -0.011739   0.002114   0.009286   0.005413
   84  O  8 YY    0.003686   0.007658   0.001524   0.000669  -0.000288
   85  O  8 ZZ   -0.002764  -0.018441  -0.014640  -0.011606  -0.001087
   86  O  8 XY    0.009879  -0.000463  -0.006130  -0.000184   0.003856
   87  O  8 XZ    0.000426   0.006847  -0.003890  -0.006196  -0.001691
   88  O  8 YZ   -0.006709  -0.012399   0.007931   0.011090   0.002466
   89  H  9  S   -0.013378  -0.106053   0.036872   0.070043   0.016647
   90  H  9  S   -0.002380  -0.050378   0.027884   0.045419   0.016159
   91  H 10  S   -0.000013  -0.109452  -0.074970  -0.046753   0.002625
   92  H 10  S   -0.002957  -0.052592  -0.040427  -0.035819  -0.009373

                     31         32         33         34         35
                   -0.3198     0.1729     0.2097     0.2147     0.2604
                     A          A          A          A          A   
    1  C  1  S    0.000932  -0.100094  -0.024923   0.040816  -0.076388
    2  C  1  S   -0.002629   0.099344   0.029513  -0.019465   0.024910
    3  C  1  X    0.042715  -0.083966  -0.065774  -0.010667   0.016248
    4  C  1  Y   -0.049123  -0.168409  -0.107373   0.016241   0.067259
    5  C  1  Z   -0.066367   0.083121   0.041640  -0.018072  -0.069422
    6  C  1  S   -0.004008   1.234350   0.177304  -0.663558   1.493787
    7  C  1  X    0.021637  -0.206562  -0.238707  -0.043168  -0.066933
    8  C  1  Y   -0.027672  -0.444311  -0.335507   0.072399   0.067843
    9  C  1  Z   -0.030035   0.208073   0.120887  -0.092068  -0.257345
   10  C  1 XX   -0.000835  -0.002987  -0.000369   0.005410  -0.016503
   11  C  1 YY   -0.015865  -0.009807  -0.004347   0.005908  -0.006500
   12  C  1 ZZ    0.016036  -0.010380   0.004289   0.002492  -0.006842
   13  C  1 XY    0.006990   0.002702  -0.006464   0.002914  -0.005346
   14  C  1 XZ   -0.007462   0.001495   0.002678  -0.001888   0.002458
   15  C  1 YZ   -0.002460   0.004830  -0.001132   0.002443  -0.008648
   16  H  2  S   -0.067105  -0.010782   0.000892   0.000403   0.006257
   17  H  2  S   -0.099551  -0.252407   0.067052   0.104833  -0.517787
   18  H  3  S    0.073797  -0.013829   0.004521  -0.002112  -0.005436
   19  H  3  S    0.113304  -0.273758   0.085029   0.124048  -0.709872
   20  H  4  S   -0.005999   0.006486  -0.008831   0.006453  -0.024031
   21  H  4  S   -0.002896  -0.067811   0.157782   0.337652  -0.434057
   22  SE 5  S   -0.000210   0.004796   0.012092  -0.004253  -0.000281
   23  SE 5  S   -0.001078   0.016703   0.056223  -0.012783  -0.020854
   24  SE 5  X   -0.043937  -0.033987   0.013357  -0.012117   0.032669
   25  SE 5  Y    0.052180  -0.030814  -0.002839   0.000239  -0.001248
   26  SE 5  Z    0.061769   0.001169   0.020079  -0.013122   0.013979
   27  SE 5  S    0.001658  -0.059574  -0.114823   0.056569  -0.044044
   28  SE 5  X    0.147322   0.114482  -0.045318   0.041259  -0.110784
   29  SE 5  Y   -0.174961   0.103646   0.009300  -0.000713   0.004507
   30  SE 5  Z   -0.207129  -0.003779  -0.067938   0.044640  -0.047273
   31  SE 5  S   -0.007760   0.075017   0.290646  -0.085271  -0.101674
   32  SE 5  X   -0.345290  -0.274550   0.129726  -0.127926   0.297652
   33  SE 5  Y    0.410288  -0.234396  -0.005718  -0.007276  -0.018425
   34  SE 5  Z    0.486976  -0.004438   0.176220  -0.129049   0.113077
   35  SE 5  S   -0.012834  -0.288510  -0.159270   0.444812  -1.372763
   36  SE 5  X   -0.200343  -0.629168   0.199682  -0.071742   0.631553
   37  SE 5  Y    0.235606  -0.828282  -0.370208   0.209729  -0.105506
   38  SE 5  Z    0.273462   0.260223   0.477131  -0.217636   0.627449
   39  SE 5 XX   -0.002741   0.025746  -0.007053   0.012298  -0.021592
   40  SE 5 YY    0.001445  -0.036583   0.001644  -0.004645   0.015344
   41  SE 5 ZZ    0.001106   0.008732   0.008516  -0.006012  -0.003049
   42  SE 5 XY    0.000621  -0.027299  -0.008636   0.008311  -0.012718
   43  SE 5 XZ    0.000752   0.029237  -0.016682   0.014982  -0.035184
   44  SE 5 YZ    0.001063   0.035625   0.016693  -0.009397   0.011370
   45  SE 5 XX   -0.000769  -0.001249  -0.041463   0.001600   0.036387
   46  SE 5 YY    0.000531  -0.013022  -0.039104  -0.004729   0.045843
   47  SE 5 ZZ    0.002043  -0.003295  -0.036934  -0.004481   0.040574
   48  SE 5 XY    0.000629  -0.006814  -0.000866   0.000682  -0.003132
   49  SE 5 XZ    0.000165   0.006135  -0.003617   0.004087  -0.008168
   50  SE 5 YZ    0.000531   0.006131   0.002644  -0.001826   0.001396
   51  SE 5 XX    0.010714  -0.043865  -0.140114  -0.037545   0.182704
   52  SE 5 YY    0.004312   0.016587  -0.149130   0.005581   0.122364
   53  SE 5 ZZ   -0.008934  -0.035531  -0.165223   0.003650   0.156364
   54  SE 5 XY   -0.004860   0.038903   0.002418  -0.003242   0.021798
   55  SE 5 XZ    0.000038  -0.031398   0.017329  -0.026330   0.051255
   56  SE 5 YZ   -0.002855  -0.032761  -0.014752   0.010613  -0.009735
   57  H  6  S   -0.000150  -0.077084   0.075698  -0.053712   0.107557
   58  H  6  S    0.001421  -0.432865   0.716827  -0.443329   1.181701
   59  O  7  S   -0.004986  -0.043645   0.078399  -0.007062  -0.009947
   60  O  7  S    0.010040   0.066594  -0.101583   0.041858  -0.032721
   61  O  7  X    0.011592   0.041978  -0.114785   0.123278   0.070603
   62  O  7  Y   -0.004649   0.034518   0.101903   0.095031  -0.099617
   63  O  7  Z   -0.050354  -0.018513   0.013942   0.071863  -0.048199
   64  O  7  S    0.033836   0.428478  -0.921337  -0.015573   0.283641
   65  O  7  X    0.013680   0.074138  -0.194735   0.216591   0.054413
   66  O  7  Y    0.000912   0.044424   0.277403   0.172147  -0.249106
   67  O  7  Z   -0.041830  -0.045470   0.099304   0.141167  -0.126617
   68  O  7 XX   -0.000714  -0.020511   0.031360   0.006902  -0.006614
   69  O  7 YY    0.000711  -0.012312   0.024790   0.008093  -0.021457
   70  O  7 ZZ   -0.002083  -0.014044   0.031911   0.014350  -0.023103
   71  O  7 XY   -0.003924  -0.001786   0.014238  -0.008501  -0.003999
   72  O  7 XZ   -0.004649  -0.006449   0.003077  -0.009771   0.000796
   73  O  7 YZ    0.000801  -0.001495  -0.003757  -0.007246   0.001942
   74  O  8  S    0.002835   0.016134   0.001805   0.088733   0.022022
   75  O  8  S   -0.005541  -0.026469   0.022156  -0.107325   0.006588
   76  O  8  X    0.014175   0.093116  -0.117216   0.156488  -0.026688
   77  O  8  Y    0.009544   0.037763  -0.063215   0.050237  -0.003165
   78  O  8  Z    0.015880   0.022574  -0.085908  -0.155527  -0.129492
   79  O  8  S   -0.019450  -0.159715  -0.115708  -1.111170  -0.383368
   80  O  8  X    0.014720   0.143249  -0.150385   0.291938  -0.027552
   81  O  8  Y    0.008896   0.052004  -0.083549   0.091791  -0.032328
   82  O  8  Z    0.011323   0.025802  -0.170905  -0.429235  -0.272276
   83  O  8 XX   -0.001637   0.004251   0.007172   0.034782   0.022840
   84  O  8 YY    0.000141   0.001865   0.012990   0.038795   0.023570
   85  O  8 ZZ    0.002538   0.005243   0.004984   0.021460   0.014481
   86  O  8 XY   -0.001093   0.000874  -0.007240  -0.004045   0.005772
   87  O  8 XZ    0.000853   0.006436  -0.007981   0.014400   0.004741
   88  O  8 YZ    0.000805   0.002416  -0.004301   0.003160   0.004716
   89  H  9  S    0.014374  -0.020218   0.059845   0.001985  -0.043652
   90  H  9  S    0.005862  -0.208584   1.003631   0.218827  -0.684827
   91  H 10  S    0.009834   0.010848   0.008493   0.070230   0.037523
   92  H 10  S    0.011826   0.087270   0.278287   1.367692   0.683615

                     36         37         38         39         40
                    0.2756     0.3082     0.3236     0.3546     0.3866
                     A          A          A          A          A   
    1  C  1  S   -0.054653   0.003508   0.042395   0.002373  -0.030764
    2  C  1  S    0.006768  -0.006648  -0.030873  -0.010999   0.032156
    3  C  1  X   -0.016060   0.144974  -0.222959  -0.064092   0.003751
    4  C  1  Y    0.151107  -0.161200  -0.078415  -0.021928   0.159733
    5  C  1  Z   -0.125282  -0.188962  -0.101500  -0.053043  -0.149471
    6  C  1  S    1.253658  -0.046362  -0.855007  -0.023526   0.643485
    7  C  1  X   -0.218952   0.763741  -1.190331  -0.308998   0.021662
    8  C  1  Y    0.453594  -0.851947  -0.245295  -0.111745   0.681292
    9  C  1  Z   -0.450042  -0.963779  -0.671849  -0.223422  -0.608886
   10  C  1 XX   -0.005906   0.005810   0.012218  -0.004429   0.006204
   11  C  1 YY   -0.006611   0.006814  -0.004028  -0.002641   0.006009
   12  C  1 ZZ   -0.013052  -0.013781  -0.002600   0.001970   0.000286
   13  C  1 XY    0.010891  -0.005577   0.009555  -0.006337   0.008072
   14  C  1 XZ   -0.002674   0.001824   0.011402   0.005448   0.001373
   15  C  1 YZ   -0.003549  -0.001409   0.004611  -0.003539   0.001139
   16  H  2  S   -0.025843   0.054989  -0.043128   0.004428  -0.023550
   17  H  2  S   -1.019146   1.581112  -0.362852  -0.058668  -1.078937
   18  H  3  S   -0.014228  -0.059380  -0.037445  -0.005253  -0.022313
   19  H  3  S   -0.850807  -1.569957  -0.267133  -0.178371  -1.097175
   20  H  4  S    0.016873   0.003605   0.090155   0.000773   0.032160
   21  H  4  S   -0.047783   0.061340   2.124997   0.457713  -0.234074
   22  SE 5  S   -0.008441  -0.000648   0.000331  -0.000072   0.005401
   23  SE 5  S   -0.051944  -0.004137  -0.003004  -0.005167   0.076070
   24  SE 5  X   -0.031269   0.001996  -0.003814   0.025442   0.026077
   25  SE 5  Y    0.011986  -0.006475  -0.009939  -0.005885   0.018351
   26  SE 5  Z   -0.020117  -0.010967  -0.001397   0.018734  -0.004733
   27  SE 5  S    0.050130   0.003688  -0.013706  -0.011162   0.068832
   28  SE 5  X    0.106909  -0.007175   0.013021  -0.086605  -0.089566
   29  SE 5  Y   -0.040713   0.022373   0.033858   0.020185  -0.062500
   30  SE 5  Z    0.068479   0.037690   0.005011  -0.063892   0.015885
   31  SE 5  S   -0.258124  -0.015252  -0.004510  -0.043685   0.337696
   32  SE 5  X   -0.335711   0.046687  -0.042846   0.234629   0.298424
   33  SE 5  Y    0.113674  -0.086287  -0.098084  -0.063818   0.169982
   34  SE 5  Z   -0.202230  -0.130795  -0.030351   0.180860  -0.022097
   35  SE 5  S   -0.501516   0.005937  -0.288193  -0.583382   2.846143
   36  SE 5  X    0.037910  -0.319524   0.218593   0.505989  -0.305104
   37  SE 5  Y    0.107388   0.234343  -0.058004  -0.000720   0.518106
   38  SE 5  Z   -0.128577   0.188870   0.269284   0.365582  -0.598042
   39  SE 5 XX   -0.000608  -0.018319   0.014409   0.003400   0.023965
   40  SE 5 YY   -0.002370   0.026183  -0.000181   0.002470   0.014044
   41  SE 5 ZZ   -0.004893  -0.008347  -0.015973  -0.008566  -0.014005
   42  SE 5 XY    0.015252   0.000721   0.013364  -0.007726   0.036431
   43  SE 5 XZ   -0.002274   0.020789  -0.013011  -0.011460   0.021917
   44  SE 5 YZ    0.001593   0.013339   0.023723   0.003797  -0.031815
   45  SE 5 XX    0.053600  -0.001971   0.014594   0.011996  -0.121306
   46  SE 5 YY    0.054879   0.011294   0.008875   0.007714  -0.125508
   47  SE 5 ZZ    0.054098   0.005990   0.004592   0.005419  -0.134735
   48  SE 5 XY    0.004758   0.002460   0.003186  -0.004384   0.011010
   49  SE 5 XZ   -0.001688   0.005594  -0.003751  -0.001030   0.006369
   50  SE 5 YZ    0.000297   0.004548   0.007901  -0.000176  -0.008743
   51  SE 5 XX    0.220546   0.072520  -0.000445  -0.008406  -0.545637
   52  SE 5 YY    0.200596  -0.027172   0.039043   0.036834  -0.501034
   53  SE 5 ZZ    0.210127   0.016720   0.071209   0.048557  -0.434719
   54  SE 5 XY   -0.032183  -0.016154  -0.023093   0.031661  -0.085199
   55  SE 5 XZ    0.022619  -0.038822   0.027972  -0.002779  -0.059683
   56  SE 5 YZ   -0.003790  -0.032768  -0.057175   0.001506   0.068361
   57  H  6  S   -0.020115  -0.012173  -0.029219   0.041836  -0.059471
   58  H  6  S   -0.402326  -0.157725   0.133628   0.802868  -0.659951
[...]

 TRANS. SAYVETZ    X  0.25138430  0.00034474  0.00011841 -0.00000921 -0.00012417
                   Y -0.81164275 -0.00285134 -0.00074730 -0.00006759 -0.00004928
                   Z 11.36701001  0.00190390  0.00190692 -0.00021722  0.00002760
               TOTAL 11.39872250  0.00344584  0.00205154  0.00022768  0.00013641

   ROT. SAYVETZ    X  0.18798089  1.94717301 -3.41556524  0.46921244  0.75697224
                   Y -0.04496893-16.10016056 -8.17443863 -0.91256622 -1.73580795
                   Z  0.04645977 -6.02617153  7.32997429 -1.21926786 -1.73457865
               TOTAL  0.19879016 17.30090738 11.49852408  1.59359704  2.56803414

                           11          12          13          14          15
       FREQUENCY:       189.32      250.02      427.31      467.37      642.34  
        SYMMETRY:         A           A           A           A           A   
    REDUCED MASS:      2.13418     6.72031     1.05644     1.09523     4.91275
    IR INTENSITY:      0.34540     0.01631     2.02099     3.03444     0.01431

  1   C            X  0.11847250 -0.03068971  0.00539116 -0.01137481  0.08319307
                   Y -0.03598753  0.00206558 -0.00524895  0.00330282  0.19834679
                   Z  0.05864533 -0.01468997 -0.00133669  0.00263913 -0.10871623
  2   H            X  0.26420814 -0.04659261 -0.01832134  0.00067128  0.04409463
                   Y  0.07920848 -0.00773165 -0.02466121  0.01235214  0.16264031
                   Z  0.20098009 -0.05402490 -0.01784583  0.01572349 -0.10161960
  3   H            X -0.03163577  0.02158240  0.03985241 -0.03301251  0.04902113
                   Y  0.01602884 -0.00537489  0.00384681 -0.00548401  0.15433091
                   Z  0.02009099 -0.00335400  0.00355876  0.00052818 -0.10633652
  4   H            X  0.21616248 -0.05650434 -0.01961704  0.00581299  0.08584977
                   Y -0.23672510  0.02155915  0.01874727 -0.01270174  0.20775899
                   Z -0.01569100  0.02481941  0.03025687 -0.01965877 -0.11756185
  5   SE           X -0.04036643 -0.04256529  0.00477519 -0.00314675 -0.01508566
                   Y -0.01184151  0.00421870 -0.00828339  0.00892539 -0.03651372
                   Z -0.00820714 -0.02216885 -0.00982318  0.00628459  0.02051914
  6   H            X  0.04616117 -0.07621507 -0.36271260  0.28583134  0.01341050
                   Y  0.00662187  0.04896877  0.41422789 -0.34380558  0.03443802
                   Z -0.13608835  0.02890152  0.50074401 -0.39322518 -0.03125934
  7   O            X  0.02305403  0.13544242  0.00154815  0.02900405  0.00048920
                   Y  0.08996079 -0.08429796  0.03393676 -0.01651488 -0.00073559
                   Z -0.01715009  0.07076076 -0.01303934 -0.03896849  0.00075091
  8   O            X  0.04752723  0.09121178 -0.01436332 -0.02709692  0.00001399
                   Y  0.01165609  0.05479560  0.02197426  0.03381538  0.00004545
                   Z  0.02151058  0.04318378  0.00500104 -0.00518820 -0.00050632
  9   H            X  0.01709004  0.22532563 -0.08223304 -0.07889029 -0.00037255
                   Y  0.17718173 -0.06199691 -0.15038184 -0.29304980 -0.00896620
                   Z -0.23017739  0.08848717  0.35785014  0.53326161  0.01985493
 10   H            X  0.15810519  0.07590993  0.20361779  0.17427930  0.00567884
                   Y -0.28763114  0.11367708 -0.42975685 -0.37892793 -0.00553473
                   Z  0.04410260  0.03967255  0.04781131  0.03436584  0.00042202

 TRANS. SAYVETZ    X  0.00000209 -0.00000340  0.00004584 -0.00000304  0.00000110
                   Y -0.00006422 -0.00000125  0.00003244  0.00002838  0.00000358
                   Z -0.00009345  0.00007213 -0.00005355 -0.00003695  0.00000172
               TOTAL  0.00011341  0.00007223  0.00007760  0.00004669  0.00000412

   ROT. SAYVETZ    X  0.82746705 -0.38801355  0.08684883 -0.04982734  0.02490354
                   Y -0.69850911  0.10753823 -0.00392535 -0.17754824 -0.04231247
                   Z -1.88053679  0.87561340 -0.13699235  0.06560362 -0.05686793
               TOTAL  2.17003118  0.96375195  0.16224990  0.19572935  0.07512984

                           16          17          18          19          20
       FREQUENCY:       818.68     1018.28     1118.33     1143.63     1471.61  
        SYMMETRY:         A           A           A           A           A   
    REDUCED MASS:      1.02708     1.14726     1.18033    14.21632     1.16372
    IR INTENSITY:      0.07954     0.15317     0.98354     0.05555     0.40670

  1   C            X  0.00827441  0.05133105  0.08873493  0.00299915 -0.03937916
                   Y -0.02300823 -0.05790091  0.00255843 -0.00096680 -0.09036344
                   Z  0.02766627 -0.06729808  0.06362757  0.00143927  0.04745456
  2   H            X -0.19242168 -0.24854925 -0.21679474 -0.00856598  0.33962942
                   Y -0.20066472 -0.39280628 -0.27163021 -0.01175696  0.31308633
                   Z -0.00229614  0.42401757  0.00803408  0.00345848 -0.22739043
  3   H            X -0.21137659  0.08555977 -0.26025042 -0.00792525  0.18025126
                   Y -0.16438940  0.60970966 -0.20290203 -0.00150567  0.47053954
                   Z  0.01513259 -0.20044018  0.04391956 -0.00042678 -0.04646257
  4   H            X  0.04769261 -0.11267750  0.14208467  0.00317400  0.03216863
                   Y  0.32314297  0.10711053  0.45864058  0.01694379  0.43007786
                   Z -0.24422031  0.14539626 -0.29000660 -0.00869444 -0.34510669
  5   SE           X -0.00071457 -0.00450985 -0.00699259 -0.00164192 -0.00106241
                   Y -0.00516369  0.00462375  0.00569462  0.00025436 -0.00146389
                   Z  0.00347404  0.00570134 -0.00985310 -0.00092667  0.00053436
  6   H            X  0.22008159  0.01237450 -0.15048143 -0.00280595 -0.00171207
                   Y  0.66640363 -0.01070170 -0.44384471 -0.00816888 -0.02234200
                   Z -0.40471532 -0.01877745  0.26257703  0.00789060  0.01222960
  7   O            X  0.00013040 -0.00081675 -0.00420829  0.15312201 -0.00799837
                   Y  0.00448692 -0.00009183 -0.00405663  0.06804447  0.00303243
                   Z  0.00049449 -0.00089407 -0.00147915  0.06125062 -0.00396651
  8   O            X  0.00479322  0.00167502  0.00387024 -0.14723058 -0.00325524
                   Y -0.00077842  0.00064180  0.00283363 -0.07418350 -0.00644362
                   Z  0.00060608  0.00085085  0.00194045 -0.05438721  0.00086776
  9   H            X  0.00744994 -0.00232841 -0.00608045  0.02581503  0.11101150
                   Y  0.00241687 -0.00064451 -0.00172332  0.06261773  0.02721864
                   Z  0.01229560 -0.00064083 -0.00863740 -0.01229040  0.03764684
 10   H            X  0.00857234 -0.00157548 -0.00517799 -0.00870455  0.07038271
                   Y -0.00235694  0.00136842 -0.00114929  0.03064322  0.02757787
                   Z  0.00143725  0.00034069  0.00049875 -0.04252504  0.01085873

 TRANS. SAYVETZ    X -0.00000078  0.00000189  0.00000161  0.00000169  0.00000297
                   Y -0.00000581 -0.00000655  0.00000496  0.00000060 -0.00000261
                   Z -0.00000415 -0.00000300 -0.00000190 -0.00000457  0.00000186
               TOTAL  0.00000718  0.00000745  0.00000555  0.00000491  0.00000437

   ROT. SAYVETZ    X  0.00368341 -0.00155235 -0.00199188  0.01604714  0.00058776
                   Y -0.00334328 -0.00518419  0.00366090 -0.00392991 -0.00037782
                   Z -0.00968524  0.00274087  0.00514636 -0.03564617 -0.00127137
               TOTAL  0.01088802  0.00606613  0.00662230  0.03928873  0.00145072

                           21          22          23          24          25
       FREQUENCY:      1498.81     1618.14     1626.19     1630.26     2537.94  
        SYMMETRY:         A           A           A           A           A   
    REDUCED MASS:      1.11244     1.08827     1.05831     1.05555     1.01975
    IR INTENSITY:      2.96041     0.08224     0.11774     0.10539     3.67834

  1   C            X  0.00600758 -0.00394709  0.01546503 -0.05553334  0.00040772
                   Y  0.01316824  0.00066193 -0.03182167  0.01795632  0.00049297
                   Z -0.00702857 -0.01228969 -0.05428227 -0.02420245 -0.00023961
  2   H            X -0.05024370  0.04112517  0.36472446 -0.00251925 -0.00417046
                   Y -0.04775598  0.02270416  0.24966077 -0.02223684  0.00244265
                   Z  0.04052235  0.13012288  0.37426731  0.52364791  0.00184429
  3   H            X -0.02259163  0.04812588 -0.20990060  0.62992582  0.00024704
                   Y -0.07299499 -0.09007346 -0.28245737 -0.27022562 -0.00254027
                   Z  0.00821714  0.02012587 -0.02337257  0.16599167 -0.00377938
  4   H            X -0.00448705 -0.03389321 -0.35009322  0.12852063 -0.00504732
                   Y -0.06125531  0.05994123  0.45792937  0.06771099 -0.00447289
                   Z  0.05045352  0.01537942  0.36142449 -0.36645308  0.00027734
  5   SE           X  0.00035219 -0.00009857  0.00013042 -0.00105705 -0.01011670
                   Y  0.00068486  0.00043929 -0.00055542  0.00018396 -0.00071957
                   Z  0.00011282  0.00005607 -0.00082955 -0.00059675 -0.00669917
  6   H            X -0.00123206  0.00307313 -0.00113187 -0.00797316  0.82522303
                   Y -0.01462809 -0.01842689 -0.00422380 -0.01318106  0.06115895
                   Z -0.00303803 -0.00817720  0.00153912  0.01221021  0.54372962
  7   O            X -0.04683790 -0.02769220  0.00406516  0.00381393 -0.00113686
                   Y  0.01269506  0.02357301 -0.00333780 -0.00288193 -0.00053076
                   Z -0.03169662  0.03174784 -0.00484920 -0.00389970 -0.00046945
  8   O            X -0.03087556  0.02709435 -0.00350712 -0.00336340 -0.00026022
                   Y -0.04012952 -0.01469673  0.00208682  0.00230502  0.00016973
                   Z  0.01258968 -0.03909355  0.00554403  0.00512026 -0.00003681
  9   H            X  0.62566562  0.58701512 -0.08667821 -0.08232843  0.00364283
                   Y  0.15564220  0.16056945 -0.02459540 -0.02023550  0.00044467
                   Z  0.18318795  0.22943242 -0.03039603 -0.03533121  0.00114165
 10   H            X  0.58680271 -0.58114011  0.07974024  0.07226947 -0.00036308
                   Y  0.26529300 -0.31830719  0.04647713  0.03893363 -0.00011373
                   Z  0.09863525 -0.12841738  0.01761970  0.01605854 -0.00110972

 TRANS. SAYVETZ    X  0.00000364  0.00000416 -0.00000124 -0.00000084  0.00000002
                   Y -0.00000500 -0.00000451 -0.00000110  0.00000011  0.00000037
                   Z -0.00000505 -0.00000112  0.00000000  0.00000075 -0.00000129
               TOTAL  0.00000799  0.00000623  0.00000166  0.00000113  0.00000134

   ROT. SAYVETZ    X  0.00116413  0.00279927 -0.00034393 -0.00034302  0.00043775
                   Y -0.00271361  0.01105323 -0.00142842 -0.00137081 -0.00018242
                   Z -0.00280626 -0.00579458  0.00068979  0.00075531 -0.00062405
               TOTAL  0.00407357  0.01279011  0.00162311  0.00160227  0.00078379

                           26          27          28          29          30
       FREQUENCY:      3253.09     3341.77     3365.91     4085.99     4086.34  
        SYMMETRY:         A           A           A           A           A   
    REDUCED MASS:      1.02979     1.10905     1.10594     1.06839     1.06941
    IR INTENSITY:      0.85494     0.24069     0.14099     1.77362     1.83454

  1   C            X  0.00758482  0.04474043 -0.07297092 -0.00000976  0.00001792
                   Y  0.03431002 -0.05252193 -0.00261282  0.00000872  0.00003188
                   Z -0.02655586 -0.05952283 -0.05233773 -0.00002088  0.00002613
  2   H            X  0.41222163 -0.45635241  0.22016321  0.00015533 -0.00028834
                   Y -0.43357320  0.48499582 -0.24558033 -0.00013740  0.00023325
                   Z -0.06579709  0.05625088 -0.04100528  0.00008611 -0.00023623
  3   H            X -0.10831468 -0.10895105 -0.06174319  0.00004642  0.00002937
                   Y  0.14136333  0.13737295  0.06413108  0.00004211  0.00004635
                   Z  0.59724626  0.64395759  0.27859401  0.00017281 -0.00030826
  4   H            X -0.39618631  0.03575642  0.71163349  0.00001026 -0.00041703
                   Y -0.10946319 -0.00120540  0.20928784  0.00023444 -0.00060254
                   Z -0.22253211  0.00490418  0.38708896 -0.00015460 -0.00020383
  5   SE           X -0.00000916 -0.00003743 -0.00009732 -0.00001729  0.00002337
                   Y -0.00006302  0.00004801 -0.00007657  0.00000563  0.00000109
                   Z  0.00006104  0.00005703 -0.00000403 -0.00000947 -0.00000058
  6   H            X  0.00275558 -0.00002719  0.00699560  0.00089442 -0.00034146
                   Y  0.00078862 -0.00006695  0.00358142 -0.00044365  0.00029310
                   Z  0.00091560 -0.00047482  0.00256018  0.00053919  0.00033660
  7   O            X  0.00000265 -0.00001944 -0.00001878  0.00221040  0.01773442
                   Y -0.00018524  0.00002169  0.00031907 -0.00411654 -0.05443832
                   Z  0.00011657 -0.00001422 -0.00028075 -0.00103388 -0.02298730
  8   O            X -0.00003996 -0.00000561  0.00003792  0.00829464 -0.00016731
                   Y  0.00000642  0.00000315  0.00000247 -0.00168941  0.00122728
                   Z -0.00000431  0.00000174  0.00005239 -0.06072689  0.00585829
  9   H            X  0.00040397  0.00018263 -0.00083911 -0.02211257 -0.29577778
                   Y  0.00010690  0.00020716  0.00075046  0.07330092  0.84487960
                   Z -0.00002074 -0.00026330  0.00002861  0.02958773  0.35129208
 10   H            X  0.00012658  0.00004098  0.00005532 -0.14422939  0.01592624
                   Y  0.00009204 -0.00013699 -0.00009099  0.01859785 -0.00081680
                   Z -0.00024115  0.00002827 -0.00014571  0.95095785 -0.07929573

 TRANS. SAYVETZ    X -0.00000051  0.00000059 -0.00000040  0.00000023  0.00000003
                   Y  0.00000245 -0.00000149  0.00000033  0.00000010  0.00000118
                   Z -0.00000367 -0.00000091  0.00000037  0.00000157  0.00000021
               TOTAL  0.00000444  0.00000184  0.00000064  0.00000159  0.00000120

   ROT. SAYVETZ    X -0.00000551 -0.00000408  0.00001055 -0.00013032 -0.00101097
                   Y  0.00002179 -0.00000298 -0.00002385 -0.00010658 -0.00120197
                   Z  0.00000779  0.00000252 -0.00002144  0.00015436  0.00207238
               TOTAL  0.00002379  0.00000565  0.00003376  0.00022841  0.00260029

 REFERENCE ON SAYVETZ CONDITIONS - A. SAYVETZ, J.CHEM.PHYS., 7, 383-389(1939).

 NOTE - THE MODES J,K ARE ORTHONORMALIZED ACCORDING TO
 SUM ON I   M(I) * (X(I,J)*X(I,K) + Y(I,J)*Y(I,K) + Z(I,J)*Z(I,K)) = DELTA(J,K)

  MODE FREQ(CM**-1)  SYMMETRY  RED. MASS  IR INTENS.
     1      81.424    A        7.291830    0.020872
     2      65.591    A        6.046285    0.042438
     3       1.994    A        3.064047    0.001003
     4       0.058    A       13.793386    0.000010
     5       0.131    A       13.350039    0.000001
     6       0.187    A       12.780932    0.000000
     7      45.078    A        5.872037    0.181920
     8      76.641    A        5.088562    0.156208
     9     107.398    A        1.069161    0.116654
    10     155.265    A        1.379755    1.657524
    11     189.324    A        2.134178    0.345399
    12     250.017    A        6.720314    0.016315
    13     427.314    A        1.056440    2.020992
    14     467.371    A        1.095226    3.034444
    15     642.339    A        4.912748    0.014312
    16     818.679    A        1.027079    0.079537
    17    1018.283    A        1.147259    0.153173
    18    1118.329    A        1.180328    0.983538
    19    1143.631    A       14.216315    0.055546
    20    1471.611    A        1.163719    0.406702
    21    1498.814    A        1.112441    2.960412
    22    1618.136    A        1.088274    0.082241
    23    1626.195    A        1.058313    0.117741
    24    1630.256    A        1.055550    0.105393
    25    2537.942    A        1.019748    3.678344
    26    3253.088    A        1.029785    0.854941
    27    3341.775    A        1.109049    0.240689
    28    3365.913    A        1.105944    0.140989
    29    4085.987    A        1.068387    1.773619
    30    4086.343    A        1.069407    1.834544

     -------------------------------
     THERMOCHEMISTRY AT T=  298.15 K
     -------------------------------

 USING IDEAL GAS, RIGID ROTOR, HARMONIC NORMAL MODE APPROXIMATIONS.
 P=  1.01325E+05 PASCAL.
 V=  4.06261E-26 M**3.
 ALL FREQUENCIES ARE SCALED BY   1.00000
 THE MOMENTS OF INERTIA ARE (IN AMU*BOHR**2)
            208.22542           958.11705          1141.45739
 THE ROTATIONAL SYMMETRY NUMBER IS  1.0
 THE ROTATIONAL CONSTANTS ARE (IN GHZ)
      8.65931     1.88191     1.57964
      7 -     30 VIBRATIONAL MODES ARE USED IN THERMOCHEMISTRY.
 THE HARMONIC ZERO POINT ENERGY IS (SCALED BY   1.000)
        0.079681 HARTREE/MOLECULE    17487.863710 CM**-1/MOLECULE 
       50.000362 KCAL/MOL              209.201513 KJ/MOL

               Q               LN Q
 ELEC.     1.00000E+00       0.000000
 TRANS.    5.82284E+07      17.879883
 ROT.      1.70823E+05      12.048386
 VIB.      2.57369E+02       5.550509
 TOT.      2.55999E+15      35.478778

              E         H         G         CV        CP        S
           KJ/MOL    KJ/MOL    KJ/MOL   J/MOL-K   J/MOL-K   J/MOL-K
 ELEC.      0.000     0.000     0.000     0.000     0.000     0.000
 TRANS.     3.718     6.197   -44.323    12.472    20.786   169.447
 ROT.       3.718     3.718   -29.867    12.472    12.472   112.647
 VIB.     222.031   222.031   195.442    70.581    70.581    89.180
 TOTAL    229.468   231.947   121.252    95.524   103.839   371.273
 VIB. THERMAL CORRECTION E(T)-E(0) = H(T)-H(0) =     12829.588 J/MOL

              E         H         G         CV        CP        S
         KCAL/MOL  KCAL/MOL  KCAL/MOL CAL/MOL-K CAL/MOL-K CAL/MOL-K
 ELEC.      0.000     0.000     0.000     0.000     0.000     0.000
 TRANS.     0.889     1.481   -10.593     2.981     4.968    40.499
 ROT.       0.889     0.889    -7.138     2.981     2.981    26.923
 VIB.      53.067    53.067    46.712    16.869    16.869    21.314
 TOTAL     54.844    55.437    28.980    22.831    24.818    88.736
 VIB. THERMAL CORRECTION E(T)-E(0) = H(T)-H(0) =      3066.345 CAL/MOL

     *******************************************************
     * THIS IS NOT A STATIONARY POINT ON THE MOLECULAR PES *
     *     THE VIBRATIONAL ANALYSIS IS NOT VALID !!!       *
     *******************************************************
 ......END OF NORMAL COORDINATE ANALYSIS......
 STEP CPU TIME =     0.01 TOTAL CPU TIME =         19.7 (      0.3 MIN)
 TOTAL WALL CLOCK TIME=         19.9 SECONDS, CPU UTILIZATION IS    99.30%
               598747  WORDS OF DYNAMIC MEMORY USED
 EXECUTION OF GAMESS TERMINATED NORMALLY 00:56:54 20-DEC-2022    
 DDI: 263640 bytes (0.3 MB / 0 MWords) used by master data server.

 ----------------------------------------
 CPU timing information for all processes
 ========================================
 0: 19.416 + 0.327 = 19.744
 ----------------------------------------
 ddikick.x: exited gracefully.
----- accounting info -----
Files used on the master node nayanika-HP-Pavilion-Gaming-Laptop-15-ec0xxx were:
-rw-rw-r-- 1 nayanika nayanika   173626 Dec 20 00:56 /home/nayanika/gamess/restart/se-ohessain3.dat
-rw-rw-r-- 1 nayanika nayanika      866 Dec 20 00:56 /home/nayanika/gamess/restart/se-ohessain3.F05
-rw-rw-r-- 1 nayanika nayanika 73086496 Dec 20 00:56 /home/nayanika/gamess/restart/se-ohessain3.F08
-rw-rw-r-- 1 nayanika nayanika  2846640 Dec 20 00:56 /home/nayanika/gamess/restart/se-ohessain3.F10
-rw-rw-r-- 1 nayanika nayanika  1026960 Dec 20 00:56 /home/nayanika/gamess/restart/se-ohessain3.F18
Tue 20 Dec 00:56:57 CET 2022
2.8u 6.9s 0:32.68 29.9% 0+0k 0+24io 0pf+0w
